Composition,Conductivity (S/cm),Temperature (degC),PO2 (%),PH2O (%),Grainsize,Ref,Carrier Type
(BaO)1(SnO2)0.9(Y2O3)0.05,2.01794E-07,299.5288832,0,1.90E+00,,https://doi.org/10.1016/j.ijhydene.2012.11.065,H
(BaO)1(SnO2)0.9(Y2O3)0.05,2.90776E-08,248.881582,0,1.90E+00,,https://doi.org/10.1016/j.ijhydene.2012.11.065,H
(BaO)1(SnO2)0.9(Gd2O3)0.05,0.000517052,598.6044557,0,1.90E+00,,https://doi.org/10.1016/j.ijhydene.2012.11.065,H
(BaO)1(SnO2)0.9(Gd2O3)0.05,0.000286029,548.0603829,0,1.90E+00,,https://doi.org/10.1016/j.ijhydene.2012.11.065,H
(BaO)1(SnO2)0.9(Gd2O3)0.05,0.000146757,499.4281261,0,1.90E+00,,https://doi.org/10.1016/j.ijhydene.2012.11.065,H
(BaO)1(SnO2)0.9(Gd2O3)0.05,6.49465E-05,449.8525122,0,1.90E+00,,https://doi.org/10.1016/j.ijhydene.2012.11.065,H
(BaO)1(SnO2)0.9(Gd2O3)0.05,2.88439E-05,400.7160121,0,1.90E+00,,https://doi.org/10.1016/j.ijhydene.2012.11.065,H
(BaO)1(SnO2)0.9(Gd2O3)0.05,1.02616E-05,349.9050279,0,1.90E+00,,https://doi.org/10.1016/j.ijhydene.2012.11.065,H
(BaO)1(SnO2)0.9(Gd2O3)0.05,2.80902E-06,299.5288832,0,1.90E+00,,https://doi.org/10.1016/j.ijhydene.2012.11.065,H
(BaO)1(SnO2)0.9(Gd2O3)0.05,5.08432E-07,249.4317676,0,1.90E+00,,https://doi.org/10.1016/j.ijhydene.2012.11.065,H
(CaO)1(ZrO2)0.9(Al2O3)0.05,0.00011466,1210.739837,1,1,,https://doi.org/10.1016/j.electacta.2010.10.098,H+E
(CaO)1(ZrO2)0.9(Al2O3)0.05,9.05614E-05,1104.878445,1,1,,https://doi.org/10.1016/j.electacta.2010.10.098,H
(CaO)1(ZrO2)0.9(Al2O3)0.05,6.80812E-05,1013.116984,1,1,,https://doi.org/10.1016/j.electacta.2010.10.098,H
(CaO)1(ZrO2)0.9(Al2O3)0.05,4.58097E-05,901.3886744,1,1,,https://doi.org/10.1016/j.electacta.2010.10.098,H
(CaO)1(ZrO2)0.9(Al2O3)0.05,2.45157E-05,807.5210184,1,1,,https://doi.org/10.1016/j.electacta.2010.10.098,H
(CaO)1(ZrO2)0.9(Al2O3)0.05,1.11894E-05,703.4579989,1,1,,https://doi.org/10.1016/j.electacta.2010.10.098,H
(CaO)1(ZrO2)0.9(Al2O3)0.05,2.76389E-06,604.1929825,1,1,,https://doi.org/10.1016/j.electacta.2010.10.098,H
(CaO)1(ZrO2)0.9(Al2O3)0.05,0.000412705,1204.51606,0,1,,https://doi.org/10.1016/j.electacta.2010.10.098,O+E
(CaO)1(ZrO2)0.9(Al2O3)0.05,0.000201632,1100.9546,0,1,,https://doi.org/10.1016/j.electacta.2010.10.098,H
(CaO)1(ZrO2)0.9(Al2O3)0.05,8.21207E-05,999.5931391,0,1,,https://doi.org/10.1016/j.electacta.2010.10.098,H
(CaO)1(ZrO2)0.9(Al2O3)0.05,3.68282E-05,902.4684838,0,1,,https://doi.org/10.1016/j.electacta.2010.10.098,H
(CaO)1(ZrO2)0.9(Al2O3)0.05,1.26481E-05,800.0948678,0,1,,https://doi.org/10.1016/j.electacta.2010.10.098,H
(CaO)1(ZrO2)0.9(Al2O3)0.05,5.04163E-06,698.5573078,0,1,,https://doi.org/10.1016/j.electacta.2010.10.098,H
(CaO)1(ZrO2)0.9(Al2O3)0.05,2.12326E-06,600.1966591,0,1,,https://doi.org/10.1016/j.electacta.2010.10.098,H
(CaO)1(ZrO2)0.9(Al2O3)0.05,4.72875E-07,501.4107744,0,1,,https://doi.org/10.1016/j.electacta.2010.10.098,H
(BaO)1(ThO2)0.9(Nd2O3)0.05,0.133072278,1128.574803,100,1.9,,https://doi.org/10.1016/j.ssi.2007.02.014,H+E
(BaO)1(ThO2)0.9(Nd2O3)0.05,0.071052851,868.025641,100,1.9,,https://doi.org/10.1016/j.ssi.2007.02.014,H+E
(BaO)1(ThO2)0.9(Nd2O3)0.05,0.028992596,715.8888889,100,1.9,,https://doi.org/10.1016/j.ssi.2007.02.014,H+E
(BaO)1(ThO2)0.9(Nd2O3)0.05,0.01209832,625.989899,100,1.9,,https://doi.org/10.1016/j.ssi.2007.02.014,H+E
(BaO)1(ThO2)0.9(Nd2O3)0.05,0.00552195,558.7757009,100,1.9,,https://doi.org/10.1016/j.ssi.2007.02.014,H+E
(BaO)1(ThO2)0.9(Nd2O3)0.05,0.002253191,490.9484979,100,1.9,,https://doi.org/10.1016/j.ssi.2007.02.014,H+E
(BaO)1(ThO2)0.9(Nd2O3)0.05,0.000751471,414.2586873,100,1.9,,https://doi.org/10.1016/j.ssi.2007.02.014,H+E
(BaO)1(ThO2)0.9(Nd2O3)0.05,0.000250626,347.2090592,100,1.9,,https://doi.org/10.1016/j.ssi.2007.02.014,H+E
(BaO)1(ThO2)0.9(Nd2O3)0.05,8.7419E-05,303.0517799,100,1.9,,https://doi.org/10.1016/j.ssi.2007.02.014,H+E
(BaO)1(CeO2)0.9(Nd2O3)0.05,0.074309823,1007.57554,20,1.9,,https://doi.org/10.1016/j.ssi.2007.02.014,H+E
(BaO)1(CeO2)0.9(Nd2O3)0.05,0.031711482,853.5822785,20,1.9,,https://doi.org/10.1016/j.ssi.2007.02.014,H+E
(BaO)1(CeO2)0.9(Nd2O3)0.05,0.01209832,732.6497175,20,1.9,,https://doi.org/10.1016/j.ssi.2007.02.014,H+E
(BaO)1(CeO2)0.9(Nd2O3)0.05,0.006039791,649.2797927,20,1.9,,https://doi.org/10.1016/j.ssi.2007.02.014,H+E
(BaO)1(CeO2)0.9(Nd2O3)0.05,0.003689011,603.8472906,20,1.9,,https://doi.org/10.1016/j.ssi.2007.02.014,H+E
(BaO)1(ThO2)0.9(Nd2O3)0.05,0.00772148,500,0.000894728,1.9,,https://doi.org/10.1016/j.ssi.2007.02.014,H+E
(BaO)1(ThO2)0.9(Nd2O3)0.05,0.007260434,500,0.037157656,1.9,,https://doi.org/10.1016/j.ssi.2007.02.014,H+E
(BaO)1(ThO2)0.9(Nd2O3)0.05,0.007817144,500,15.09190148,1.9,,https://doi.org/10.1016/j.ssi.2007.02.014,H+E
(BaO)1(ThO2)0.9(Nd2O3)0.05,0.008841462,500,45.90243759,1.9,,https://doi.org/10.1016/j.ssi.2007.02.014,H+E
(BaO)1(ThO2)0.9(Nd2O3)0.05,0.0090619,500,89.47275729,1.9,,https://doi.org/10.1016/j.ssi.2007.02.014,H+E
(BaO)1(ThO2)0.9(Nd2O3)0.05,0.026128369,600,0.001,1.9,,https://doi.org/10.1016/j.ssi.2007.02.014,H+E
(BaO)1(ThO2)0.9(Nd2O3)0.05,0.024872642,600,0.039282842,1.9,,https://doi.org/10.1016/j.ssi.2007.02.014,H+E
(BaO)1(ThO2)0.9(Nd2O3)0.05,0.025492775,600,15.955064,1.9,,https://doi.org/10.1016/j.ssi.2007.02.014,H+E
(BaO)1(ThO2)0.9(Nd2O3)0.05,0.031818067,600,45.90243759,1.9,,https://doi.org/10.1016/j.ssi.2007.02.014,H+E
(BaO)1(ThO2)0.9(Nd2O3)0.05,0.035987339,600,89.47275729,1.9,,https://doi.org/10.1016/j.ssi.2007.02.014,H+E
(BaO)1(ThO2)0.9(Nd2O3)0.05,0.05080218,700,0.0009459,1.9,,https://doi.org/10.1016/j.ssi.2007.02.014,H+E
(BaO)1(ThO2)0.9(Nd2O3)0.05,0.05143159,700,0.041529575,1.9,,https://doi.org/10.1016/j.ssi.2007.02.014,H+E
(BaO)1(ThO2)0.9(Nd2O3)0.05,0.063407267,700,15.09190148,1.9,,https://doi.org/10.1016/j.ssi.2007.02.014,H+E
(BaO)1(ThO2)0.9(Nd2O3)0.05,0.070838178,700,45.90243759,1.9,,https://doi.org/10.1016/j.ssi.2007.02.014,H+E
(BaO)1(ThO2)0.9(Nd2O3)0.05,0.087332616,700,94.59004033,1.9,,https://doi.org/10.1016/j.ssi.2007.02.014,H+E
(BaO)1(ThO2)0.9(Nd2O3)0.05,0.08313542,800,0.0009459,1.9,,https://doi.org/10.1016/j.ssi.2007.02.014,H+E
(BaO)1(ThO2)0.9(Nd2O3)0.05,0.085208179,800,0.039282842,1.9,,https://doi.org/10.1016/j.ssi.2007.02.014,H+E
(BaO)1(ThO2)0.9(Nd2O3)0.05,0.102493232,800,15.09190148,1.9,,https://doi.org/10.1016/j.ssi.2007.02.014,H+E
(BaO)1(ThO2)0.9(Nd2O3)0.05,0.123284674,800,43.41913423,1.9,,https://doi.org/10.1016/j.ssi.2007.02.014,H+E
(BaO)1(ThO2)0.9(Nd2O3)0.05,0.146479012,800,89.47275729,1.9,,https://doi.org/10.1016/j.ssi.2007.02.014,H+E
(BaO)1(ThO2)0.9(Nd2O3)0.05,0.113103472,900,0.001,1.9,,https://doi.org/10.1016/j.ssi.2007.02.014,H+E
(BaO)1(ThO2)0.9(Nd2O3)0.05,0.115923403,900,0.039282842,1.9,,https://doi.org/10.1016/j.ssi.2007.02.014,H+E
(BaO)1(ThO2)0.9(Nd2O3)0.05,0.146479012,900,15.09190148,1.9,,https://doi.org/10.1016/j.ssi.2007.02.014,H+E
(BaO)1(ThO2)0.9(Nd2O3)0.05,0.180586172,900,43.41913423,1.9,,https://doi.org/10.1016/j.ssi.2007.02.014,H+E
(BaO)1(ThO2)0.9(Nd2O3)0.05,0.201749671,900,89.47275729,1.9,,https://doi.org/10.1016/j.ssi.2007.02.014,H+E
(BaO)1(ThO2)0.9(Nd2O3)0.05,0.14291579,1000,0.001,1.9,,https://doi.org/10.1016/j.ssi.2007.02.014,H+E
(BaO)1(ThO2)0.9(Nd2O3)0.05,0.144686432,1000,0.037157656,1.9,,https://doi.org/10.1016/j.ssi.2007.02.014,H+E
(BaO)1(ThO2)0.9(Nd2O3)0.05,0.182823528,1000,15.09190148,1.9,,https://doi.org/10.1016/j.ssi.2007.02.014,H+E
(BaO)1(ThO2)0.9(Nd2O3)0.05,0.239706132,1000,45.90243759,1.9,,https://doi.org/10.1016/j.ssi.2007.02.014,H+E
(BaO)1(ThO2)0.9(Nd2O3)0.05,0.267798097,1000,89.47275729,1.9,,https://doi.org/10.1016/j.ssi.2007.02.014,H+E
(BaO)1(ZrO2)0.9(Pr2O3)0.05,4.21167E-05,694.4502712,20,0,,https://doi.org/10.1002/adfm.201001540,O+E
(BaO)1(ZrO2)0.9(Pr2O3)0.05,3.58579E-05,665.5964912,20,0,,https://doi.org/10.1002/adfm.201001540,O+E
(BaO)1(ZrO2)0.9(Pr2O3)0.05,2.12574E-05,605.4893268,20,0,,https://doi.org/10.1002/adfm.201001540,O+E
(BaO)1(ZrO2)0.9(Pr2O3)0.05,1.54089E-05,560.3333333,20,0,,https://doi.org/10.1002/adfm.201001540,O+E
(BaO)1(ZrO2)0.9(Pr2O3)0.05,9.13479E-06,506.8833819,20,0,,https://doi.org/10.1002/adfm.201001540,O+E
(BaO)1(ZrO2)0.9(Pr2O3)0.05,4.99678E-06,454.8911565,20,0,,https://doi.org/10.1002/adfm.201001540,O+E
(BaO)1(ZrO2)0.9(Pr2O3)0.05,2.62551E-06,405.9340102,20,0,,https://doi.org/10.1002/adfm.201001540,O+E
(BaO)1(ZrO2)0.9(Pr2O3)0.05,1.32517E-06,345.4971098,20,0,,https://doi.org/10.1002/adfm.201001540,O+E
(BaO)1(ZrO2)0.9(Pr2O3)0.05,8.14246E-05,695.2487447,0,1.9,,https://doi.org/10.1002/adfm.201001540,H
(BaO)1(ZrO2)0.9(Pr2O3)0.05,5.55884E-05,664.677498,0,1.9,,https://doi.org/10.1002/adfm.201001540,H
(BaO)1(ZrO2)0.9(Pr2O3)0.05,3.57191E-05,606.0245054,0,1.9,,https://doi.org/10.1002/adfm.201001540,H
(BaO)1(ZrO2)0.9(Pr2O3)0.05,2.49835E-05,559.4301878,0,1.9,,https://doi.org/10.1002/adfm.201001540,H
(BaO)1(ZrO2)0.9(Pr2O3)0.05,1.30122E-05,503.7478103,0,1.9,,https://doi.org/10.1002/adfm.201001540,H
(BaO)1(ZrO2)0.9(Pr2O3)0.05,6.50233E-06,454.0596769,0,1.9,,https://doi.org/10.1002/adfm.201001540,H
(BaO)1(ZrO2)0.9(Pr2O3)0.05,3.10179E-06,405.1374825,0,1.9,,https://doi.org/10.1002/adfm.201001540,H
(BaO)1(ZrO2)0.9(Pr2O3)0.05,1.44567E-06,345.4399664,0,1.9,,https://doi.org/10.1002/adfm.201001540,H
(BaO)1(CeO2)0.9(Nd2O3)0.05,0.047081284,989.4617613,0,0,,https://doi.org/10.1016/0167-2738(96)00087-2,H
(BaO)1(CeO2)0.9(Nd2O3)0.05,0.0400841,940.9449578,0,0,,https://doi.org/10.1016/0167-2738(96)00087-2,H
(BaO)1(CeO2)0.9(Nd2O3)0.05,0.032917765,896.0078995,0,0,,https://doi.org/10.1016/0167-2738(96)00087-2,H
(BaO)1(CeO2)0.9(Nd2O3)0.05,0.026557034,846.294371,0,0,,https://doi.org/10.1016/0167-2738(96)00087-2,H
(BaO)1(CeO2)0.9(Nd2O3)0.05,0.021045434,796.9993816,0,0,,https://doi.org/10.1016/0167-2738(96)00087-2,H
(BaO)1(CeO2)0.9(Nd2O3)0.05,0.016986069,745.2678728,0,0,,https://doi.org/10.1016/0167-2738(96)00087-2,H
(BaO)1(CeO2)0.9(Nd2O3)0.05,0.014736356,696.8340573,0,0,,https://doi.org/10.1016/0167-2738(96)00087-2,H
(BaO)1(CeO2)0.9(Nd2O3)0.05,0.012333422,650.0892339,0,0,,https://doi.org/10.1016/0167-2738(96)00087-2,H
(BaO)1(CeO2)0.9(Nd2O3)0.05,0.010328939,596.7447313,0,0,,https://doi.org/10.1016/0167-2738(96)00087-2,H
(CaO)1(ZrO2)0.9(In2O3)0.05,0.001474897,1003.471301,0,0,,https://doi.org/10.1016/0167-2738(96)00087-2,H
(CaO)1(ZrO2)0.9(In2O3)0.05,0.001233254,953.8866706,0,0,,https://doi.org/10.1016/0167-2738(96)00087-2,H
(CaO)1(ZrO2)0.9(In2O3)0.05,0.001012842,905.8034354,0,0,,https://doi.org/10.1016/0167-2738(96)00087-2,H
(CaO)1(ZrO2)0.9(In2O3)0.05,0.000802582,853.2570144,0,0,,https://doi.org/10.1016/0167-2738(96)00087-2,H
(CaO)1(ZrO2)0.9(In2O3)0.05,0.000624736,799.7048102,0,0,,https://doi.org/10.1016/0167-2738(96)00087-2,H
(CaO)1(ZrO2)0.9(In2O3)0.05,0.000469138,747.7005229,0,0,,https://doi.org/10.1016/0167-2738(96)00087-2,H
(CaO)1(ZrO2)0.9(In2O3)0.05,0.000345996,700.5014708,0,0,,https://doi.org/10.1016/0167-2738(96)00087-2,H
(CaO)1(ZrO2)0.9(In2O3)0.05,0.000259896,652.0349394,0,0,,https://doi.org/10.1016/0167-2738(96)00087-2,H
(CaO)1(ZrO2)0.9(In2O3)0.05,0.000175261,602.0510221,0,0,,https://doi.org/10.1016/0167-2738(96)00087-2,H
(BaO)1(Pr2O3)0.45(Gd2O3)0.05,0.571072172,699.6775956,100,1.9,,https://doi.org/10.1016/j.ssi.2007.02.014,E
(BaO)1(Pr2O3)0.45(Gd2O3)0.05,0.408042684,595.2926829,100,1.9,,https://doi.org/10.1016/j.ssi.2007.02.014,E
(BaO)1(Pr2O3)0.45(Gd2O3)0.05,0.260650399,490.9484979,100,1.9,,https://doi.org/10.1016/j.ssi.2007.02.014,E
(BaO)1(Pr2O3)0.45(Gd2O3)0.05,0.15920125,379.014652,100,1.9,,https://doi.org/10.1016/j.ssi.2007.02.014,E
(BaO)1(Pr2O3)0.45(Gd2O3)0.05,0.101694923,310.6065574,100,1.9,,https://doi.org/10.1016/j.ssi.2007.02.014,E
(BaO)1(Pr2O3)0.45(Gd2O3)0.05,0.071052851,253.6272189,100,1.9,,https://doi.org/10.1016/j.ssi.2007.02.014,E
(BaO)1(Pr2O3)0.45(Gd2O3)0.05,0.045387296,195.4210526,100,1.9,,https://doi.org/10.1016/j.ssi.2007.02.014,E
(BaO)1(ZrO2)0.95(Dy2O3)0.025,0.000548715,798.2328767,0,4,2,https://doi.org/10.1016/j.electacta.2012.05.002,H
(BaO)1(ZrO2)0.95(Dy2O3)0.025,0.000403602,748.9550444,0,4,2,https://doi.org/10.1016/j.electacta.2012.05.002,H
(BaO)1(ZrO2)0.95(Dy2O3)0.025,0.000307767,698.1872827,0,4,2,https://doi.org/10.1016/j.electacta.2012.05.002,H
(BaO)1(ZrO2)0.95(Dy2O3)0.025,0.000227118,650.4766179,0,4,2,https://doi.org/10.1016/j.electacta.2012.05.002,H
(BaO)1(ZrO2)0.95(Dy2O3)0.025,0.000158181,599.3784025,0,4,2,https://doi.org/10.1016/j.electacta.2012.05.002,H
(BaO)1(ZrO2)0.95(Dy2O3)0.025,0.000103329,550.8516646,0,4,2,https://doi.org/10.1016/j.electacta.2012.05.002,H
(BaO)1(ZrO2)0.95(Dy2O3)0.025,6.36956E-05,500.0328193,0,4,2,https://doi.org/10.1016/j.electacta.2012.05.002,H
(BaO)1(ZrO2)0.95(Dy2O3)0.025,3.45923E-05,450.8059978,0,4,2,https://doi.org/10.1016/j.electacta.2012.05.002,H
(BaO)1(ZrO2)0.95(Dy2O3)0.025,0.000710639,798.2328767,20,0,,https://doi.org/10.1016/j.electacta.2012.05.002,H
(BaO)1(ZrO2)0.95(Dy2O3)0.025,0.000540416,748.9550444,20,0,,https://doi.org/10.1016/j.electacta.2012.05.002,H
(BaO)1(ZrO2)0.95(Dy2O3)0.025,0.00040599,698.1872827,20,0,,https://doi.org/10.1016/j.electacta.2012.05.002,H
(BaO)1(ZrO2)0.95(Dy2O3)0.025,0.000299973,650.4766179,20,0,,https://doi.org/10.1016/j.electacta.2012.05.002,H
(BaO)1(ZrO2)0.95(Dy2O3)0.025,0.000205897,599.3784025,20,0,,https://doi.org/10.1016/j.electacta.2012.05.002,H
(BaO)1(ZrO2)0.95(Dy2O3)0.025,0.000136904,550.8516646,20,0,,https://doi.org/10.1016/j.electacta.2012.05.002,H
(BaO)1(ZrO2)0.95(Dy2O3)0.025,8.18834E-05,500.0328193,20,0,,https://doi.org/10.1016/j.electacta.2012.05.002,H
(BaO)1(ZrO2)0.95(Dy2O3)0.025,3.9839E-05,450.8059978,20,0,,https://doi.org/10.1016/j.electacta.2012.05.002,H
(BaO)1(CeO2)0.95(Sm2O3)0.025,0.025407216,900.4059448,20,1.9,1,https://doi.org/10.1016/j.jpowsour.2008.01.036,O+H
(BaO)1(CeO2)0.95(Sm2O3)0.025,0.018909982,849.7108819,20,1.9,1,https://doi.org/10.1016/j.jpowsour.2008.01.036,O+H
(BaO)1(CeO2)0.95(Sm2O3)0.025,0.013395329,799.6246239,20,1.9,1,https://doi.org/10.1016/j.jpowsour.2008.01.036,O+H
(BaO)1(CeO2)0.95(Sm2O3)0.025,0.008884362,749.9269747,20,1.9,1,https://doi.org/10.1016/j.jpowsour.2008.01.036,O+H
(BaO)1(CeO2)0.95(Sm2O3)0.025,0.006091963,700.4983725,20,1.9,1,https://doi.org/10.1016/j.jpowsour.2008.01.036,O+H
(BaO)1(CeO2)0.95(Sm2O3)0.025,0.004248143,650.3009405,20,1.9,1,https://doi.org/10.1016/j.jpowsour.2008.01.036,O+H
(BaO)1(CeO2)0.95(Sm2O3)0.025,0.002914825,599.7724672,20,1.9,1,https://doi.org/10.1016/j.jpowsour.2008.01.036,O+H
(BaO)1(CeO2)0.95(Sm2O3)0.025,0.005862203,600,0,1.9,1,https://doi.org/10.1016/j.jpowsour.2008.01.036,H
(BaO)1(CeO2)0.95(Sm2O3)0.025,0.007232952,650,0,1.9,1,https://doi.org/10.1016/j.jpowsour.2008.01.036,H
(BaO)1(CeO2)0.95(Sm2O3)0.025,0.008034206,700,0,1.9,1,https://doi.org/10.1016/j.jpowsour.2008.01.036,H
(BaO)1(CeO2)0.95(Sm2O3)0.025,0.009242287,750,0,1.9,1,https://doi.org/10.1016/j.jpowsour.2008.01.036,H
(BaO)1(CeO2)0.95(Sm2O3)0.025,0.010632025,800,0,1.9,1,https://doi.org/10.1016/j.jpowsour.2008.01.036,H
(BaO)1(CeO2)0.95(Sm2O3)0.025,0.011809822,850,0,1.9,1,https://doi.org/10.1016/j.jpowsour.2008.01.036,H
(BaO)1(CeO2)0.95(Sm2O3)0.025,0.014571293,900,0,1.9,1,https://doi.org/10.1016/j.jpowsour.2008.01.036,H
(SrO)1(ZrO2)0.95(Y2O3)0.025,0.003455107,1004.44511,0,0,,https://doi.org/10.1016/0167-2738(95)00051-7,H
(SrO)1(ZrO2)0.95(Y2O3)0.025,0.002945987,950.709369,0,0,,https://doi.org/10.1016/0167-2738(95)00051-7,H
(SrO)1(ZrO2)0.95(Y2O3)0.025,0.002467787,901.3119266,0,0,,https://doi.org/10.1016/0167-2738(95)00051-7,H
(SrO)1(ZrO2)0.95(Y2O3)0.025,0.002030918,847.8406305,0,0,,https://doi.org/10.1016/0167-2738(95)00051-7,H
(SrO)1(ZrO2)0.95(Y2O3)0.025,0.001826158,797.2341137,0,0,,https://doi.org/10.1016/0167-2738(95)00051-7,H
(SrO)1(ZrO2)0.95(Y2O3)0.025,0.001529732,747.7336523,0,0,,https://doi.org/10.1016/0167-2738(95)00051-7,H
(SrO)1(ZrO2)0.95(Y2O3)0.025,0.001304321,702.6097561,0,0,,https://doi.org/10.1016/0167-2738(95)00051-7,H
(SrO)1(ZrO2)0.95(Y2O3)0.025,0.00094825,649.1902017,0,0,,https://doi.org/10.1016/0167-2738(95)00051-7,H
(SrO)1(ZrO2)0.95(Y2O3)0.025,0.000739998,600.1241473,0,0,,https://doi.org/10.1016/0167-2738(95)00051-7,H
(BaO)1(CeO2)0.95(Sm2O3)0.025,0.023269624,996.899132,0,0,,https://doi.org/10.1149/1.2221624,O+H
(BaO)1(CeO2)0.95(Sm2O3)0.025,0.019769918,946.6237046,0,0,,https://doi.org/10.1149/1.2221624,O+H
(BaO)1(CeO2)0.95(Sm2O3)0.025,0.015901768,897.7839757,0,0,,https://doi.org/10.1149/1.2221624,O+H
(BaO)1(CeO2)0.95(Sm2O3)0.025,0.014016342,848.4928494,0,0,,https://doi.org/10.1149/1.2221624,O+H
(BaO)1(CeO2)0.95(Sm2O3)0.025,0.010873557,797.1945874,0,0,,https://doi.org/10.1149/1.2221624,O+H
(BaO)1(CeO2)0.95(Sm2O3)0.025,0.009243944,746.9013543,0,0,,https://doi.org/10.1149/1.2221624,O+H
(BaO)1(CeO2)0.95(Sm2O3)0.025,0.00717347,697.8397267,0,0,,https://doi.org/10.1149/1.2221624,O+H
(BaO)1(CeO2)0.95(Sm2O3)0.025,0.005882729,646.0710898,0,0,,https://doi.org/10.1149/1.2221624,O+H
(BaO)1(CeO2)0.95(Sm2O3)0.025,0.004737247,598.2397609,0,0,,https://doi.org/10.1149/1.2221624,O+H
(BaO)1(ZrO2)0.95(Ga2O3)0.025,0.00020598,1000,0,0,,https://doi.org/10.1016/0167-2738(93)90335-Z,H
(BaO)1(ZrO2)0.95(Ga2O3)0.025,0.000135916,900,0,0,,https://doi.org/10.1016/0167-2738(93)90335-Z,H
(BaO)1(ZrO2)0.95(Ga2O3)0.025,7.52182E-05,800,0,0,,https://doi.org/10.1016/0167-2738(93)90335-Z,H
(BaO)1(ZrO2)0.95(Ga2O3)0.025,3.60476E-05,700,0,0,,https://doi.org/10.1016/0167-2738(93)90335-Z,H
(BaO)1(ZrO2)0.95(In2O3)0.025,0.001391526,1000,0,0,,https://doi.org/10.1016/0167-2738(93)90335-Z,H
(BaO)1(ZrO2)0.95(In2O3)0.025,0.000889251,900,0,0,,https://doi.org/10.1016/0167-2738(93)90335-Z,H
(BaO)1(ZrO2)0.95(In2O3)0.025,0.000559313,800,0,0,,https://doi.org/10.1016/0167-2738(93)90335-Z,H
(BaO)1(ZrO2)0.95(In2O3)0.025,0.000340703,700,0,0,,https://doi.org/10.1016/0167-2738(93)90335-Z,H
(BaO)1(ZrO2)0.95(Y2O3)0.025,0.004490199,1000,0,0,,https://doi.org/10.1016/0167-2738(93)90335-Z,H
(BaO)1(ZrO2)0.95(Y2O3)0.025,0.003313592,900,0,0,,https://doi.org/10.1016/0167-2738(93)90335-Z,H
(BaO)1(ZrO2)0.95(Y2O3)0.025,0.002257628,800,0,0,,https://doi.org/10.1016/0167-2738(93)90335-Z,H
(BaO)1(ZrO2)0.95(Y2O3)0.025,0.001269552,700,0,0,,https://doi.org/10.1016/0167-2738(93)90335-Z,H
(BaO)1(ZrO2)0.95(Dy2O3)0.025,0.004081418,1000,0,0,,https://doi.org/10.1016/0167-2738(93)90335-Z,H
(BaO)1(ZrO2)0.95(Dy2O3)0.025,0.002964293,900,0,0,,https://doi.org/10.1016/0167-2738(93)90335-Z,H
(BaO)1(ZrO2)0.95(Dy2O3)0.025,0.002118681,800,0,0,,https://doi.org/10.1016/0167-2738(93)90335-Z,H
(BaO)1(ZrO2)0.95(Dy2O3)0.025,0.00121068,700,0,0,,https://doi.org/10.1016/0167-2738(93)90335-Z,H
(BaO)1(ZrO2)0.95(Nd2O3)0.025,0.001139117,1000,0,0,,https://doi.org/10.1016/0167-2738(93)90335-Z,H
(BaO)1(ZrO2)0.95(Nd2O3)0.025,0.000751643,900,0,0,,https://doi.org/10.1016/0167-2738(93)90335-Z,H
(BaO)1(ZrO2)0.95(Nd2O3)0.025,0.000409414,800,0,0,,https://doi.org/10.1016/0167-2738(93)90335-Z,H
(BaO)1(ZrO2)0.95(Nd2O3)0.025,0.000202574,700,0,0,,https://doi.org/10.1016/0167-2738(93)90335-Z,H
(SrO)1(ZrO2)0.95(In2O3)0.025,0.001604281,997.7352828,0,0,,https://doi.org/10.1016/0167-2738(93)90335-Z,H
(SrO)1(ZrO2)0.95(In2O3)0.025,0.001225333,945.6983079,0,0,,https://doi.org/10.1016/0167-2738(93)90335-Z,H
(SrO)1(ZrO2)0.95(In2O3)0.025,0.000983984,895.1305381,0,0,,https://doi.org/10.1016/0167-2738(93)90335-Z,H
(SrO)1(ZrO2)0.95(In2O3)0.025,0.000667199,799.2318475,0,0,,https://doi.org/10.1016/0167-2738(93)90335-Z,H
(SrO)1(ZrO2)0.95(In2O3)0.025,0.000574835,748.3136233,0,0,,https://doi.org/10.1016/0167-2738(93)90335-Z,H
(SrO)1(ZrO2)0.95(In2O3)0.025,0.000485505,696.9443949,0,0,,https://doi.org/10.1016/0167-2738(93)90335-Z,H
(SrO)1(ZrO2)0.95(In2O3)0.025,0.000360046,647.6907931,0,0,,https://doi.org/10.1016/0167-2738(93)90335-Z,H
(SrO)1(ZrO2)0.95(In2O3)0.025,0.000267044,599.0671049,0,0,,https://doi.org/10.1016/0167-2738(93)90335-Z,H
(CaO)1(ZrO2)0.95(In2O3)0.025,0.000915773,999.8641625,0,0,,https://doi.org/10.1016/0167-2738(93)90335-Z,H
(CaO)1(ZrO2)0.95(In2O3)0.025,0.000750237,947.411178,0,0,,https://doi.org/10.1016/0167-2738(93)90335-Z,H
(CaO)1(ZrO2)0.95(In2O3)0.025,0.000627054,899.0455532,0,0,,https://doi.org/10.1016/0167-2738(93)90335-Z,H
(CaO)1(ZrO2)0.95(In2O3)0.025,0.000513776,847.5975115,0,0,,https://doi.org/10.1016/0167-2738(93)90335-Z,H
(CaO)1(ZrO2)0.95(In2O3)0.025,0.000392488,798.5927289,0,0,,https://doi.org/10.1016/0167-2738(93)90335-Z,H