Composition,Conductivity (S/cm),Temperature (degC),PO2 (%),PH2O (%),Grainsize,Ref,Carrier Type
(BaO)1(CeO2)0.9(Gd2O3)0.05,0.026171421,900,9.38773E-17,1.9,,https://doi.org/10.1016/j.ijhydene.2014.09.019,O+H
(BaO)1(CeO2)0.9(Gd2O3)0.05,0.029374236,900,9.32083E-16,1.9,,https://doi.org/10.1016/j.ijhydene.2014.09.019,O+H
(BaO)1(CeO2)0.9(Gd2O3)0.05,0.033181145,900,1.06818E-14,1.9,,https://doi.org/10.1016/j.ijhydene.2014.09.019,O+H
(BaO)1(CeO2)0.9(Gd2O3)0.05,0.035379079,900,1.05887E-13,1.9,,https://doi.org/10.1016/j.ijhydene.2014.09.019,O+H
(BaO)1(CeO2)0.9(Gd2O3)0.05,0.036298492,900,1.0484E-12,1.9,,https://doi.org/10.1016/j.ijhydene.2014.09.019,O+H
(BaO)1(CeO2)0.9(Gd2O3)0.05,0.036298492,900,8.98776E-12,1.9,,https://doi.org/10.1016/j.ijhydene.2014.09.019,O+H
(BaO)1(CeO2)0.9(Gd2O3)0.05,0.03676712,900,8.89527E-11,1.9,,https://doi.org/10.1016/j.ijhydene.2014.09.019,O+H
(BaO)1(CeO2)0.9(Gd2O3)0.05,0.037003698,900,9.73029E-06,1.9,,https://doi.org/10.1016/j.ijhydene.2014.09.019,O+H
(BaO)1(CeO2)0.9(Gd2O3)0.05,0.03748143,900,0.001099452,1.9,,https://doi.org/10.1016/j.ijhydene.2014.09.019,O+H
(BaO)1(CeO2)0.9(Gd2O3)0.05,0.03870292,900,0.010887892,1.9,,https://doi.org/10.1016/j.ijhydene.2014.09.019,O+H
(BaO)1(CeO2)0.9(Gd2O3)0.05,0.039964217,900,0.107822996,1.9,,https://doi.org/10.1016/j.ijhydene.2014.09.019,O+H
(BaO)1(CeO2)0.9(Gd2O3)0.05,0.043161596,900,1.148655133,1.9,,https://doi.org/10.1016/j.ijhydene.2014.09.019,O+H
(BaO)1(CeO2)0.9(Gd2O3)0.05,0.04844364,900,10.61645127,1.9,,https://doi.org/10.1016/j.ijhydene.2014.09.019,O+H
(BaO)1(CeO2)0.9(Gd2O3)0.05,0.050344248,900,26.96831461,1.9,,https://doi.org/10.1016/j.ijhydene.2014.09.019,O+H
(BaO)1(CeO2)0.9(Gd2O3)0.05,0.051652568,900,51.42072107,1.9,,https://doi.org/10.1016/j.ijhydene.2014.09.019,O+H
(BaO)1(CeO2)0.9(Gd2O3)0.05,0.050344248,900,97.88798509,1.9,,https://doi.org/10.1016/j.ijhydene.2014.09.019,O+H
(BaO)1(CeO2)0.9(Gd2O3)0.05,0.018749103,750,1.02E-18,1.9,,https://doi.org/10.1016/j.ijhydene.2014.09.019,O+H
(BaO)1(CeO2)0.9(Gd2O3)0.05,0.021729381,750,9.43E-18,1.9,,https://doi.org/10.1016/j.ijhydene.2014.09.019,O+H
(BaO)1(CeO2)0.9(Gd2O3)0.05,0.023168745,750,9.35E-17,1.9,,https://doi.org/10.1016/j.ijhydene.2014.09.019,O+H
(BaO)1(CeO2)0.9(Gd2O3)0.05,0.024232661,750,1.07E-15,1.9,,https://doi.org/10.1016/j.ijhydene.2014.09.019,O+H
(BaO)1(CeO2)0.9(Gd2O3)0.05,0.024703453,750,1.06E-14,1.9,,https://doi.org/10.1016/j.ijhydene.2014.09.019,O+H
(BaO)1(CeO2)0.9(Gd2O3)0.05,0.024862407,750,9.65E-13,1.9,,https://doi.org/10.1016/j.ijhydene.2014.09.019,O+H
(BaO)1(CeO2)0.9(Gd2O3)0.05,0.024703453,750,9.92E-09,1.9,,https://doi.org/10.1016/j.ijhydene.2014.09.019,O+H
(BaO)1(CeO2)0.9(Gd2O3)0.05,0.024703453,750,1.02E-04,1.9,,https://doi.org/10.1016/j.ijhydene.2014.09.019,O+H
(BaO)1(CeO2)0.9(Gd2O3)0.05,0.025345433,750,9.31E-03,1.9,,https://doi.org/10.1016/j.ijhydene.2014.09.019,O+H
(BaO)1(CeO2)0.9(Gd2O3)0.05,0.027373221,750,1.05E+00,1.9,,https://doi.org/10.1016/j.ijhydene.2014.09.019,O+H
(BaO)1(CeO2)0.9(Gd2O3)0.05,0.02881443,750,1.04E+01,1.9,,https://doi.org/10.1016/j.ijhydene.2014.09.019,O+H
(BaO)1(CeO2)0.9(Gd2O3)0.05,0.02881443,750,2.30E+01,1.9,,https://doi.org/10.1016/j.ijhydene.2014.09.019,O+H
(BaO)1(CeO2)0.9(Gd2O3)0.05,0.028447165,750,5.42E+01,1.9,,https://doi.org/10.1016/j.ijhydene.2014.09.019,O+H
(BaO)1(CeO2)0.9(Gd2O3)0.05,0.014883393,600,9.4247E-19,1.9,,https://doi.org/10.1016/j.ijhydene.2014.09.019,O+H
(BaO)1(CeO2)0.9(Gd2O3)0.05,0.015075544,600,9.32771E-18,1.9,,https://doi.org/10.1016/j.ijhydene.2014.09.019,O+H
(BaO)1(CeO2)0.9(Gd2O3)0.05,0.015075544,600,9.22804E-17,1.9,,https://doi.org/10.1016/j.ijhydene.2014.09.019,O+H
(BaO)1(CeO2)0.9(Gd2O3)0.05,0.014883393,600,9.49244E-13,1.9,,https://doi.org/10.1016/j.ijhydene.2014.09.019,O+H
(BaO)1(CeO2)0.9(Gd2O3)0.05,0.015172547,600,1.01669E-05,1.9,,https://doi.org/10.1016/j.ijhydene.2014.09.019,O+H
(BaO)1(CeO2)0.9(Gd2O3)0.05,0.015667008,600,0.09748944,1.9,,https://doi.org/10.1016/j.ijhydene.2014.09.019,O+H
(BaO)1(CeO2)0.9(Gd2O3)0.05,0.016074154,600,0.965247113,1.9,,https://doi.org/10.1016/j.ijhydene.2014.09.019,O+H
(BaO)1(CeO2)0.9(Gd2O3)0.05,0.016704798,600,8.89996973,1.9,,https://doi.org/10.1016/j.ijhydene.2014.09.019,O+H
(BaO)1(CeO2)0.9(Gd2O3)0.05,0.016704798,600,24.2575713,1.9,,https://doi.org/10.1016/j.ijhydene.2014.09.019,O+H
(BaO)1(CeO2)0.9(Gd2O3)0.05,0.015869276,600,49.56740437,1.9,,https://doi.org/10.1016/j.ijhydene.2014.09.019,O+H
(BaO)1(CeO2)0.9(Gd2O3)0.05,0.014048576,600,87.57569382,1.9,,https://doi.org/10.1016/j.ijhydene.2014.09.019,O+H
(BaO)1(CeO2)0.9(Sm2O3)0.05,0.044929106,994.9415593,0,0,,https://doi.org/10.1149/1.2221624,O+H
(BaO)1(CeO2)0.9(Sm2O3)0.05,0.038168887,947.347505,0,0,,https://doi.org/10.1149/1.2221624,O+H
(BaO)1(CeO2)0.9(Sm2O3)0.05,0.031846103,896.1567825,0,0,,https://doi.org/10.1149/1.2221624,O+H
(BaO)1(CeO2)0.9(Sm2O3)0.05,0.027062823,846.9658083,0,0,,https://doi.org/10.1149/1.2221624,O+H
(BaO)1(CeO2)0.9(Sm2O3)0.05,0.022585058,797.8138055,0,0,,https://doi.org/10.1149/1.2221624,O+H
(BaO)1(CeO2)0.9(Sm2O3)0.05,0.017206377,747.3793298,0,0,,https://doi.org/10.1149/1.2221624,O+H
(BaO)1(CeO2)0.9(Sm2O3)0.05,0.01311068,698.2600698,0,0,,https://doi.org/10.1149/1.2221624,O+H
(BaO)1(CeO2)0.9(Sm2O3)0.05,0.010178085,646.4135327,0,0,,https://doi.org/10.1149/1.2221624,O+H
(BaO)1(CeO2)0.9(Sm2O3)0.05,0.007345638,597.1951334,0,0,,https://doi.org/10.1149/1.2221624,O+H
(SrO)1(ZrO2)0.9(Y2O3)0.05,0.012080056,902.5086638,100,0,1,https://doi.org/10.1016/j.jpowsour.2013.06.155,O+H
(SrO)1(ZrO2)0.9(Y2O3)0.05,0.00901714,851.1767165,100,0,1,https://doi.org/10.1016/j.jpowsour.2013.06.155,O+H
(SrO)1(ZrO2)0.9(Y2O3)0.05,0.00630144,800.4798591,100,0,1,https://doi.org/10.1016/j.jpowsour.2013.06.155,O+H
(SrO)1(ZrO2)0.9(Y2O3)0.05,0.004342353,749.1609489,100,0,1,https://doi.org/10.1016/j.jpowsour.2013.06.155,O+H
(SrO)1(ZrO2)0.9(Y2O3)0.05,0.002752689,699.5236486,100,0,1,https://doi.org/10.1016/j.jpowsour.2013.06.155,O+H
(SrO)1(ZrO2)0.9(Y2O3)0.05,0.008926911,901.4683525,20,0,1,https://doi.org/10.1016/j.jpowsour.2013.06.155,O+H
(SrO)1(ZrO2)0.9(Y2O3)0.05,0.006645402,853.2371887,20,0,1,https://doi.org/10.1016/j.jpowsour.2013.06.155,O+H
(SrO)1(ZrO2)0.9(Y2O3)0.05,0.004731398,800.5235342,20,0,1,https://doi.org/10.1016/j.jpowsour.2013.06.155,O+H
(SrO)1(ZrO2)0.9(Y2O3)0.05,0.003255146,750.8618051,20,0,1,https://doi.org/10.1016/j.jpowsour.2013.06.155,O+H
(SrO)1(ZrO2)0.9(Y2O3)0.05,0.002066848,699.5594949,20,0,1,https://doi.org/10.1016/j.jpowsour.2013.06.155,O+H
(SrO)1(ZrO2)0.9(Y2O3)0.05,0.004062869,910.3550065,100,1.9,2,https://doi.org/10.1016/j.jpowsour.2016.09.075,H+E
(SrO)1(ZrO2)0.9(Y2O3)0.05,0.002443502,861.6633416,100,1.9,2,https://doi.org/10.1016/j.jpowsour.2016.09.075,H+E
(SrO)1(ZrO2)0.9(Y2O3)0.05,0.001199125,805.1990521,100,1.9,2,https://doi.org/10.1016/j.jpowsour.2016.09.075,H+E
(SrO)1(ZrO2)0.9(Y2O3)0.05,0.000651449,757.5775764,100,1.9,2,https://doi.org/10.1016/j.jpowsour.2016.09.075,H+E
(SrO)1(ZrO2)0.9(Y2O3)0.05,0.000260858,707.6034483,100,1.9,2,https://doi.org/10.1016/j.jpowsour.2016.09.075,H+E
(SrO)1(ZrO2)0.9(Y2O3)0.05,0.000128013,656.5199183,100,1.9,2,https://doi.org/10.1016/j.jpowsour.2016.09.075,H+E
(SrO)1(ZrO2)0.9(Y2O3)0.05,5.6747E-05,605.3783784,100,1.9,2,https://doi.org/10.1016/j.jpowsour.2016.09.075,H+E
(SrO)1(ZrO2)0.9(Y2O3)0.05,2.05259E-05,552.7713249,100,1.9,2,https://doi.org/10.1016/j.jpowsour.2016.09.075,H+E
(SrO)1(ZrO2)0.9(Y2O3)0.05,6.70654E-06,504.1135781,100,1.9,2,https://doi.org/10.1016/j.jpowsour.2016.09.075,H+E
(SrO)1(ZrO2)0.9(Y2O3)0.05,2.19126E-06,453.8370607,100,1.9,2,https://doi.org/10.1016/j.jpowsour.2016.09.075,H+E
(SrO)1(ZrO2)0.9(Y2O3)0.05,4.53056E-07,403.5799257,100,1.9,2,https://doi.org/10.1016/j.jpowsour.2016.09.075,H+E
(SrO)1(ZrO2)0.9(Y2O3)0.05,1.03699E-07,352,100,1.9,2,https://doi.org/10.1016/j.jpowsour.2016.09.075,H+E
(SrO)1(ZrO2)0.9(Y2O3)0.05,1.50195E-08,302.2212389,100,1.9,2,https://doi.org/10.1016/j.jpowsour.2016.09.075,H+E
(SrO)1(ZrO2)0.9(Y2O3)0.05,0.000104455,653.6802444,100,0,2,https://doi.org/10.1016/j.jpowsour.2016.09.075,H+E
(SrO)1(ZrO2)0.9(Y2O3)0.05,3.2437E-05,605.3783784,100,0,2,https://doi.org/10.1016/j.jpowsour.2016.09.075,H+E
(SrO)1(ZrO2)0.9(Y2O3)0.05,1.00729E-05,557.2919708,100,0,2,https://doi.org/10.1016/j.jpowsour.2016.09.075,H+E
(SrO)1(ZrO2)0.9(Y2O3)0.05,2.19126E-06,504.1135781,100,0,2,https://doi.org/10.1016/j.jpowsour.2016.09.075,H+E
(SrO)1(ZrO2)0.9(Y2O3)0.05,4.53056E-07,453.8370607,100,0,2,https://doi.org/10.1016/j.jpowsour.2016.09.075,H+E
(SrO)1(ZrO2)0.9(Y2O3)0.05,8.46145E-08,403.5799257,100,0,2,https://doi.org/10.1016/j.jpowsour.2016.09.075,H+E
(SrO)1(ZrO2)0.9(Y2O3)0.05,1.35673E-08,353.2904336,100,0,2,https://doi.org/10.1016/j.jpowsour.2016.09.075,H+E
(BaO)1(CeO2)0.9(Nd2O3)0.05,0.07423692,992.4381538,20,1.9,,https://doi.org/10.1149/1.2095649,H+E
(BaO)1(CeO2)0.9(Nd2O3)0.05,0.062783232,960.0990077,20,1.9,,https://doi.org/10.1149/1.2095649,H+E
(BaO)1(CeO2)0.9(Nd2O3)0.05,0.0511558,921.919964,20,1.9,,https://doi.org/10.1149/1.2095649,H+E
(BaO)1(CeO2)0.9(Nd2O3)0.05,0.039417342,879.1364954,20,1.9,,https://doi.org/10.1149/1.2095649,H+E
(BaO)1(CeO2)0.9(Nd2O3)0.05,0.031524796,839.2584943,20,1.9,,https://doi.org/10.1149/1.2095649,H+E
(BaO)1(CeO2)0.9(Nd2O3)0.05,0.023403038,796.1360722,20,1.9,,https://doi.org/10.1149/1.2095649,H+E
(BaO)1(CeO2)0.9(Nd2O3)0.05,0.016738621,759.0545455,20,1.9,,https://doi.org/10.1149/1.2095649,H+E
(BaO)1(CeO2)0.9(Nd2O3)0.05,0.011972011,719.2838103,20,1.9,,https://doi.org/10.1149/1.2095649,H+E
(BaO)1(CeO2)0.9(Nd2O3)0.05,0.008249774,680.1221665,20,1.9,,https://doi.org/10.1149/1.2095649,H+E
(BaO)1(CeO2)0.9(Nd2O3)0.05,0.005791662,639.541477,20,1.9,,https://doi.org/10.1149/1.2095649,H+E
(BaO)1(CeO2)0.9(Nd2O3)0.05,0.00370453,600.3575407,20,1.9,,https://doi.org/10.1149/1.2095649,H+E
(BaO)1(CeO2)0.9(Y2O3)0.05,0.038252148,997.9555807,0,0,,https://doi.org/10.1149/1.2095649,H
(BaO)1(CeO2)0.9(Y2O3)0.05,0.03638946,983.5007429,0,0,,https://doi.org/10.1149/1.2095649,H
(BaO)1(CeO2)0.9(Y2O3)0.05,0.031721595,939.3511069,0,0,,https://doi.org/10.1149/1.2095649,H
(BaO)1(CeO2)0.9(Y2O3)0.05,0.02697083,898.2257618,0,0,,https://doi.org/10.1149/1.2095649,H
(BaO)1(CeO2)0.9(Y2O3)0.05,0.023511141,857.4454384,0,0,,https://doi.org/10.1149/1.2095649,H
(BaO)1(CeO2)0.9(Y2O3)0.05,0.01999001,819.4329038,0,0,,https://doi.org/10.1149/1.2095649,H
(BaO)1(CeO2)0.9(Y2O3)0.05,0.016577239,777.8574624,0,0,,https://doi.org/10.1149/1.2095649,H
(BaO)1(CeO2)0.9(Y2O3)0.05,0.01391975,739.320431,0,0,,https://doi.org/10.1149/1.2095649,H
(BaO)1(CeO2)0.9(Y2O3)0.05,0.011688282,696.6237124,0,0,,https://doi.org/10.1149/1.2095649,H
(BaO)1(CeO2)0.9(Y2O3)0.05,0.010188965,657.3572902,0,0,,https://doi.org/10.1149/1.2095649,H
(BaO)1(CeO2)0.9(Y2O3)0.05,0.008881974,618.2495499,0,0,,https://doi.org/10.1149/1.2095649,H
(BaO)1(CeO2)0.9(Y2O3)0.05,0.007094936,578.3753309,0,0,,https://doi.org/10.1149/1.2095649,H
(BaO)1(CeO2)0.9(Nd2O3)0.05,0.035938137,1000.97931,0,0,,https://doi.org/10.1149/1.2095649,H
(BaO)1(CeO2)0.9(Nd2O3)0.05,0.029433011,961.2037729,0,0,,https://doi.org/10.1149/1.2095649,H
(BaO)1(CeO2)0.9(Nd2O3)0.05,0.02471462,918.6225325,0,0,,https://doi.org/10.1149/1.2095649,H
(BaO)1(CeO2)0.9(Nd2O3)0.05,0.020241051,878.9076431,0,0,,https://doi.org/10.1149/1.2095649,H
(BaO)1(CeO2)0.9(Nd2O3)0.05,0.016996218,837.2297593,0,0,,https://doi.org/10.1149/1.2095649,H
(BaO)1(CeO2)0.9(Nd2O3)0.05,0.013747109,798.4964521,0,0,,https://doi.org/10.1149/1.2095649,H
(BaO)1(CeO2)0.9(Nd2O3)0.05,0.011543317,758.4596463,0,0,,https://doi.org/10.1149/1.2095649,H
(BaO)1(CeO2)0.9(Nd2O3)0.05,0.009937794,719.4933369,0,0,,https://doi.org/10.1149/1.2095649,H
(BaO)1(CeO2)0.9(Nd2O3)0.05,0.00910646,678.3563684,0,0,,https://doi.org/10.1149/1.2095649,H
(BaO)1(CeO2)0.9(Nd2O3)0.05,0.006583066,639.1348315,0,0,,https://doi.org/10.1149/1.2095649,H
(BaO)1(CeO2)0.9(La2O3)0.05,0.016996218,1001.939692,0,0,,https://doi.org/10.1149/1.2095649,H
(BaO)1(CeO2)0.9(La2O3)0.05,0.015381258,984.5751943,0,0,,https://doi.org/10.1149/1.2095649,H
(BaO)1(CeO2)0.9(La2O3)0.05,0.01357661,959.3676396,0,0,,https://doi.org/10.1149/1.2095649,H
(BaO)1(CeO2)0.9(La2O3)0.05,0.011543317,919.4767322,0,0,,https://doi.org/10.1149/1.2095649,H
(BaO)1(CeO2)0.9(La2O3)0.05,0.009692814,882.1004844,0,0,,https://doi.org/10.1149/1.2095649,H
(BaO)1(CeO2)0.9(La2O3)0.05,0.008663021,840.1343824,0,0,,https://doi.org/10.1149/1.2095649,H
(BaO)1(CeO2)0.9(La2O3)0.05,0.008038019,803.1782548,0,0,,https://doi.org/10.1149/1.2095649,H
(BaO)1(CeO2)0.9(La2O3)0.05,0.007365609,758.8372244,0,0,,https://doi.org/10.1149/1.2095649,H
(BaO)1(CeO2)0.9(La2O3)0.05,0.006749449,719.7943529,0,0,,https://doi.org/10.1149/1.2095649,H
(BaO)1(CeO2)0.9(La2O3)0.05,0.005883662,680.3181767,0,0,,https://doi.org/10.1149/1.2095649,H
(BaO)1(CeO2)0.9(La2O3)0.05,0.00487918,639.3316491,0,0,,https://doi.org/10.1149/1.2095649,H
(BaO)1(CeO2)0.9(La2O3)0.05,0.003897498,598.9731211,0,0,,https://doi.org/10.1149/1.2095649,H
(BaO)1(CeO2)0.9(Y2O3)0.05,0.068933592,1001.414063,0,1.7,,https://doi.org/10.1016/S0167-2738(00)00777-3,H
(BaO)1(CeO2)0.9(Y2O3)0.05,0.057272072,951.2026266,0,1.7,,https://doi.org/10.1016/S0167-2738(00)00777-3,H
(BaO)1(CeO2)0.9(Y2O3)0.05,0.050932547,900.5611511,0,1.7,,https://doi.org/10.1016/S0167-2738(00)00777-3,H
(BaO)1(CeO2)0.9(Y2O3)0.05,0.042324527,852,0,1.7,,https://doi.org/10.1016/S0167-2738(00)00777-3,H
(BaO)1(CeO2)0.9(Y2O3)0.05,0.035782674,800.1907895,0,1.7,,https://doi.org/10.1016/S0167-2738(00)00777-3,H
(BaO)1(CeO2)0.9(Y2O3)0.05,0.028270008,749.7272727,0,1.7,,https://doi.org/10.1016/S0167-2738(00)00777-3,H
(BaO)1(CeO2)0.9(Y2O3)0.05,0.023108809,700.880597,0,1.7,,https://doi.org/10.1016/S0167-2738(00)00777-3,H
(BaO)1(CeO2)0.9(Y2O3)0.05,0.019547183,651.2209632,0,1.7,,https://doi.org/10.1016/S0167-2738(00)00777-3,H
(BaO)1(CeO2)0.9(Y2O3)0.05,0.015454252,600.4939759,0,1.7,,https://doi.org/10.1016/S0167-2738(00)00777-3,H
(BaO)1(CeO2)0.9(Y2O3)0.05,0.126092399,998.4592275,20,1.7,,https://doi.org/10.1016/S0167-2738(00)00777-3,O+H
(BaO)1(CeO2)0.9(Y2O3)0.05,0.084422869,897.9486166,20,1.7,,https://doi.org/10.1016/S0167-2738(00)00777-3,O+H
(BaO)1(CeO2)0.9(Y2O3)0.05,0.050626881,800.3695652,20,1.7,,https://doi.org/10.1016/S0167-2738(00)00777-3,O+H
(BaO)1(CeO2)0.9(Y2O3)0.05,0.02877319,698.3114754,20,1.7,,https://doi.org/10.1016/S0167-2738(00)00777-3,O+H
(BaO)1(CeO2)0.9(Y2O3)0.05,0.01578787,598.3235294,20,1.7,,https://doi.org/10.1016/S0167-2738(00)00777-3,O+H
(BaO)1(ZrO2)0.9(Y2O3)0.05,0.006190815,1001.414063,0,1.7,,https://doi.org/10.1016/S0167-2738(00)00777-3,H
(BaO)1(ZrO2)0.9(Y2O3)0.05,0.004806225,948.9101124,0,1.7,,https://doi.org/10.1016/S0167-2738(00)00777-3,H
(BaO)1(ZrO2)0.9(Y2O3)0.05,0.00406177,900.5611511,0,1.7,,https://doi.org/10.1016/S0167-2738(00)00777-3,H
(BaO)1(ZrO2)0.9(Y2O3)0.05,0.00355207,848.1340206,0,1.7,,https://doi.org/10.1016/S0167-2738(00)00777-3,H
(BaO)1(ZrO2)0.9(Y2O3)0.05,0.003002657,800.1907895,0,1.7,,https://doi.org/10.1016/S0167-2738(00)00777-3,H
(BaO)1(ZrO2)0.9(Y2O3)0.05,0.002671504,749.7272727,0,1.7,,https://doi.org/10.1016/S0167-2738(00)00777-3,H
(BaO)1(ZrO2)0.9(Y2O3)0.05,0.002221153,700.880597,0,1.7,,https://doi.org/10.1016/S0167-2738(00)00777-3,H
(BaO)1(ZrO2)0.9(Y2O3)0.05,0.00191098,651.2209632,0,1.7,,https://doi.org/10.1016/S0167-2738(00)00777-3,H
(BaO)1(ZrO2)0.9(Y2O3)0.05,0.001562909,601.6648794,0,1.7,,https://doi.org/10.1016/S0167-2738(00)00777-3,H
(BaO)1(ZrO2)0.9(Y2O3)0.05,0.050091708,951.1735537,20,1.7,,https://doi.org/10.1016/S0167-2738(00)00777-3,O+H
(BaO)1(ZrO2)0.9(Y2O3)0.05,0.034063585,900.2673267,20,1.7,,https://doi.org/10.1016/S0167-2738(00)00777-3,O+H
(BaO)1(ZrO2)0.9(Y2O3)0.05,0.022328772,849.1590909,20,1.7,,https://doi.org/10.1016/S0167-2738(00)00777-3,O+H
(BaO)1(ZrO2)0.9(Y2O3)0.05,0.015764448,800.3695652,20,1.7,,https://doi.org/10.1016/S0167-2738(00)00777-3,O+H
(BaO)1(ZrO2)0.9(Y2O3)0.05,0.009781288,750.3160622,20,1.7,,https://doi.org/10.1016/S0167-2738(00)00777-3,O+H
(BaO)1(ZrO2)0.9(Y2O3)0.05,0.007725782,698.3114754,20,1.7,,https://doi.org/10.1016/S0167-2738(00)00777-3,O+H
(BaO)1(ZrO2)0.9(Y2O3)0.05,0.005666531,651.3369735,20,1.7,,https://doi.org/10.1016/S0167-2738(00)00777-3,O+H
(BaO)1(ZrO2)0.9(Y2O3)0.05,0.004317031,600.8938053,20,1.7,,https://doi.org/10.1016/S0167-2738(00)00777-3,O+H
(BaO)1(SnO2)0.9(In2O3)0.05,0.003048136,548.0603829,0,1.90E+00,,https://doi.org/10.1016/j.ijhydene.2012.11.065,H
(BaO)1(SnO2)0.9(In2O3)0.05,0.001245701,498.2260073,0,1.90E+00,,https://doi.org/10.1016/j.ijhydene.2012.11.065,H
(BaO)1(SnO2)0.9(In2O3)0.05,0.000473184,448.799644,0,1.90E+00,,https://doi.org/10.1016/j.ijhydene.2012.11.065,H
(BaO)1(SnO2)0.9(In2O3)0.05,0.000173846,398.8891232,0,1.90E+00,,https://doi.org/10.1016/j.ijhydene.2012.11.065,H
(BaO)1(SnO2)0.9(In2O3)0.05,5.30811E-05,348.3429925,0,1.90E+00,,https://doi.org/10.1016/j.ijhydene.2012.11.065,H
(BaO)1(SnO2)0.9(In2O3)0.05,1.39387E-05,300.1911065,0,1.90E+00,,https://doi.org/10.1016/j.ijhydene.2012.11.065,H
(BaO)1(SnO2)0.9(In2O3)0.05,2.83472E-06,248.881582,0,1.90E+00,,https://doi.org/10.1016/j.ijhydene.2012.11.065,H
(BaO)1(SnO2)0.9(Lu2O3)0.05,0.001305147,699.5250763,0,1.90E+00,,https://doi.org/10.1016/j.ijhydene.2012.11.065,H
(BaO)1(SnO2)0.9(Lu2O3)0.05,0.000691048,648.8685407,0,1.90E+00,,https://doi.org/10.1016/j.ijhydene.2012.11.065,H
(BaO)1(SnO2)0.9(Lu2O3)0.05,0.000366744,598.6044557,0,1.90E+00,,https://doi.org/10.1016/j.ijhydene.2012.11.065,H
(BaO)1(SnO2)0.9(Lu2O3)0.05,0.000180648,549.4230131,0,1.90E+00,,https://doi.org/10.1016/j.ijhydene.2012.11.065,H
(BaO)1(SnO2)0.9(Lu2O3)0.05,8.93569E-05,499.4281261,0,1.90E+00,,https://doi.org/10.1016/j.ijhydene.2012.11.065,H
(BaO)1(SnO2)0.9(Lu2O3)0.05,3.66384E-05,449.8525122,0,1.90E+00,,https://doi.org/10.1016/j.ijhydene.2012.11.065,H
(BaO)1(SnO2)0.9(Lu2O3)0.05,1.20211E-05,398.8891232,0,1.90E+00,,https://doi.org/10.1016/j.ijhydene.2012.11.065,H
(BaO)1(SnO2)0.9(Lu2O3)0.05,3.40071E-06,348.3429925,0,1.90E+00,,https://doi.org/10.1016/j.ijhydene.2012.11.065,H
(BaO)1(SnO2)0.9(Lu2O3)0.05,7.67395E-07,299.5288832,0,1.90E+00,,https://doi.org/10.1016/j.ijhydene.2012.11.065,H
(BaO)1(SnO2)0.9(Lu2O3)0.05,1.33697E-07,249.4317676,0,1.90E+00,,https://doi.org/10.1016/j.ijhydene.2012.11.065,H
(BaO)1(SnO2)0.9(Er2O3)0.05,0.000656624,699.5250763,0,1.90E+00,,https://doi.org/10.1016/j.ijhydene.2012.11.065,H
(BaO)1(SnO2)0.9(Er2O3)0.05,0.000361835,647.156798,0,1.90E+00,,https://doi.org/10.1016/j.ijhydene.2012.11.065,H
(BaO)1(SnO2)0.9(Er2O3)0.05,0.000198812,600.1401723,0,1.90E+00,,https://doi.org/10.1016/j.ijhydene.2012.11.065,H
(BaO)1(SnO2)0.9(Er2O3)0.05,9.82475E-05,548.0603829,0,1.90E+00,,https://doi.org/10.1016/j.ijhydene.2012.11.065,H
(BaO)1(SnO2)0.9(Er2O3)0.05,4.49558E-05,499.4281261,0,1.90E+00,,https://doi.org/10.1016/j.ijhydene.2012.11.065,H
(BaO)1(SnO2)0.9(Er2O3)0.05,1.77427E-05,449.8525122,0,1.90E+00,,https://doi.org/10.1016/j.ijhydene.2012.11.065,H
(BaO)1(SnO2)0.9(Er2O3)0.05,5.82139E-06,398.8891232,0,1.90E+00,,https://doi.org/10.1016/j.ijhydene.2012.11.065,H
(BaO)1(SnO2)0.9(Er2O3)0.05,1.64492E-06,349.1230297,0,1.90E+00,,https://doi.org/10.1016/j.ijhydene.2012.11.065,H
(BaO)1(SnO2)0.9(Er2O3)0.05,3.5809E-07,298.8681882,0,1.90E+00,,https://doi.org/10.1016/j.ijhydene.2012.11.065,H
(BaO)1(SnO2)0.9(Er2O3)0.05,5.76847E-08,249.9831144,0,1.90E+00,,https://doi.org/10.1016/j.ijhydene.2012.11.065,H
(BaO)1(SnO2)0.9(Y2O3)0.05,0.000415357,699.5250763,0,1.90E+00,,https://doi.org/10.1016/j.ijhydene.2012.11.065,H
(BaO)1(SnO2)0.9(Y2O3)0.05,0.000256194,648.8685407,0,1.90E+00,,https://doi.org/10.1016/j.ijhydene.2012.11.065,H
(BaO)1(SnO2)0.9(Y2O3)0.05,0.000136191,597.0741319,0,1.90E+00,,https://doi.org/10.1016/j.ijhydene.2012.11.065,H
(BaO)1(SnO2)0.9(Y2O3)0.05,6.70773E-05,548.0603829,0,1.90E+00,,https://doi.org/10.1016/j.ijhydene.2012.11.065,H
(BaO)1(SnO2)0.9(Y2O3)0.05,2.84374E-05,499.4281261,0,1.90E+00,,https://doi.org/10.1016/j.ijhydene.2012.11.065,H
(BaO)1(SnO2)0.9(Y2O3)0.05,1.166E-05,449.8525122,0,1.90E+00,,https://doi.org/10.1016/j.ijhydene.2012.11.065,H
(BaO)1(SnO2)0.9(Y2O3)0.05,3.83538E-06,397.0721154,0,1.90E+00,,https://doi.org/10.1016/j.ijhydene.2012.11.065,H
(BaO)1(SnO2)0.9(Y2O3)0.05,9.62925E-07,349.9050279,0,1.90E+00,,https://doi.org/10.1016/j.ijhydene.2012.11.065,H