Composition,Conductivity (S/cm),Temperature (degC),PO2 (%),PH2O (%),Grainsize,Ref,Carrier Type
(Nd2O3)0.45(CaO)0.1(Al2O3)0.45(Ga2O3)0.05,0.011953381,950,5.37E-03,0,,10.1149/1.2059351,O
(Nd2O3)0.45(CaO)0.1(Al2O3)0.45(Ga2O3)0.05,0.016649539,950,4.22E+01,0,,10.1149/1.2059351,O
(Nd2O3)0.45(CaO)0.1(Al2O3)0.45(Ga2O3)0.05,0.011734944,950,1.00E-03,0,,10.1149/1.2059351,O
(Y2O3)0.45(SrO)0.1(Cr2O3)0.45(Fe2O3)0.05,17.30458289,906.7752809,20,0,,https://doi.org/10.1016/j.jpowsour.2013.11.005,O+E
(Y2O3)0.45(SrO)0.1(Cr2O3)0.45(Fe2O3)0.05,16.42871334,849.9946524,20,0,,https://doi.org/10.1016/j.jpowsour.2013.11.005,O+E
(Y2O3)0.45(SrO)0.1(Cr2O3)0.45(Fe2O3)0.05,16.28571996,803.9230769,20,0,,https://doi.org/10.1016/j.jpowsour.2013.11.005,O+E
(Y2O3)0.45(SrO)0.1(Cr2O3)0.45(Fe2O3)0.05,15.08524011,751.3902439,20,0,,https://doi.org/10.1016/j.jpowsour.2013.11.005,O+E
(Y2O3)0.45(SrO)0.1(Cr2O3)0.45(Fe2O3)0.05,15.42559871,703.744186,20,0,,https://doi.org/10.1016/j.jpowsour.2013.11.005,O+E
(Y2O3)0.45(SrO)0.1(Cr2O3)0.45(Fe2O3)0.05,14.05301902,648.0526316,20,0,,https://doi.org/10.1016/j.jpowsour.2013.11.005,O+E
(Y2O3)0.45(SrO)0.1(Cr2O3)0.45(Fe2O3)0.05,13.36801243,602,20,0,,https://doi.org/10.1016/j.jpowsour.2013.11.005,O+E
(Y2O3)0.45(SrO)0.1(Cr2O3)0.45(Fe2O3)0.05,11.55396213,553.7716535,20,0,,https://doi.org/10.1016/j.jpowsour.2013.11.005,O+E
(Y2O3)0.45(SrO)0.1(Cr2O3)0.45(Fe2O3)0.05,10.86156808,501.9077491,20,0,,https://doi.org/10.1016/j.jpowsour.2013.11.005,O+E
(Y2O3)0.45(SrO)0.1(Cr2O3)0.45(Fe2O3)0.05,10.81015288,448.6494845,20,0,,https://doi.org/10.1016/j.jpowsour.2013.11.005,O+E
(Y2O3)0.45(SrO)0.1(Cr2O3)0.45(Fe2O3)0.05,9.739117496,397.9265176,20,0,,https://doi.org/10.1016/j.jpowsour.2013.11.005,O+E
(Y2O3)0.45(SrO)0.1(Cr2O3)0.45(Fe2O3)0.05,7.545235641,350.1454006,20,0,,https://doi.org/10.1016/j.jpowsour.2013.11.005,O+E
(Y2O3)0.45(SrO)0.1(Cr2O3)0.45(Fe2O3)0.05,6.379123363,299.2070845,20,0,,https://doi.org/10.1016/j.jpowsour.2013.11.005,O+E
(Y2O3)0.45(SrO)0.1(Cr2O3)0.45(Fe2O3)0.05,10.69695065,906.7752809,0,0,,https://doi.org/10.1016/j.jpowsour.2013.11.005,O+E
(Y2O3)0.45(SrO)0.1(Cr2O3)0.45(Fe2O3)0.05,9.84870092,856.0322581,0,0,,https://doi.org/10.1016/j.jpowsour.2013.11.005,O+E
(Y2O3)0.45(SrO)0.1(Cr2O3)0.45(Fe2O3)0.05,8.870167774,803.9230769,0,0,,https://doi.org/10.1016/j.jpowsour.2013.11.005,O+E
(Y2O3)0.45(SrO)0.1(Cr2O3)0.45(Fe2O3)0.05,8.010918289,751.3902439,0,0,,https://doi.org/10.1016/j.jpowsour.2013.11.005,O+E
(Y2O3)0.45(SrO)0.1(Cr2O3)0.45(Fe2O3)0.05,7.823440807,699.2222222,0,0,,https://doi.org/10.1016/j.jpowsour.2013.11.005,O+E
(Y2O3)0.45(SrO)0.1(Cr2O3)0.45(Fe2O3)0.05,6.714466803,652.1101322,0,0,,https://doi.org/10.1016/j.jpowsour.2013.11.005,O+E
(Y2O3)0.45(SrO)0.1(Cr2O3)0.45(Fe2O3)0.05,6.280999102,598.3692946,0,0,,https://doi.org/10.1016/j.jpowsour.2013.11.005,O+E
(Y2O3)0.45(SrO)0.1(Cr2O3)0.45(Fe2O3)0.05,5.855687398,550.5294118,0,0,,https://doi.org/10.1016/j.jpowsour.2013.11.005,O+E
(Y2O3)0.45(SrO)0.1(Cr2O3)0.45(Fe2O3)0.05,5.212468164,501.9077491,0,0,,https://doi.org/10.1016/j.jpowsour.2013.11.005,O+E
(Y2O3)0.45(SrO)0.1(Cr2O3)0.45(Fe2O3)0.05,4.130756068,448.6494845,0,0,,https://doi.org/10.1016/j.jpowsour.2013.11.005,O+E
(Y2O3)0.45(SrO)0.1(Cr2O3)0.45(Fe2O3)0.05,3.341597847,402.2411576,0,0,,https://doi.org/10.1016/j.jpowsour.2013.11.005,O+E
(Y2O3)0.45(SrO)0.1(Cr2O3)0.45(Fe2O3)0.05,2.469511857,352,0,0,,https://doi.org/10.1016/j.jpowsour.2013.11.005,O+E
(Y2O3)0.45(SrO)0.1(Cr2O3)0.45(Fe2O3)0.05,1.840055695,300.7704918,0,0,,https://doi.org/10.1016/j.jpowsour.2013.11.005,O+E
(SrO)0.9(Y2O3)0.05(V2O3)0.45(Al2O3)0.05,146.5514096,1064.112906,0,0,,https://doi.org/10.1016/j.ssi.2013.06.002,E
(SrO)0.9(Y2O3)0.05(V2O3)0.45(Al2O3)0.05,160.1916962,1011.104202,0,0,,https://doi.org/10.1016/j.ssi.2013.06.002,E
(SrO)0.9(Y2O3)0.05(V2O3)0.45(Al2O3)0.05,177.3372625,965.1861563,0,0,,https://doi.org/10.1016/j.ssi.2013.06.002,E
(SrO)0.9(Y2O3)0.05(V2O3)0.45(Al2O3)0.05,202.4044237,917.2409762,0,0,,https://doi.org/10.1016/j.ssi.2013.06.002,E
(SrO)0.9(Y2O3)0.05(V2O3)0.45(Al2O3)0.05,228.0972241,867.6644599,0,0,,https://doi.org/10.1016/j.ssi.2013.06.002,E
(SrO)0.9(Y2O3)0.05(V2O3)0.45(Al2O3)0.05,264.3382436,822.0527706,0,0,,https://doi.org/10.1016/j.ssi.2013.06.002,E
(SrO)0.9(Y2O3)0.05(V2O3)0.45(Al2O3)0.05,310.263009,778.11134,0,0,,https://doi.org/10.1016/j.ssi.2013.06.002,E
(SrO)0.9(Y2O3)0.05(V2O3)0.45(Al2O3)0.05,359.5588643,727.4922422,0,0,,https://doi.org/10.1016/j.ssi.2013.06.002,E
(SrO)0.9(Y2O3)0.05(V2O3)0.45(Al2O3)0.05,410.3836029,681.5236307,0,0,,https://doi.org/10.1016/j.ssi.2013.06.002,E
(SrO)0.9(Y2O3)0.05(V2O3)0.45(Al2O3)0.05,490.3204422,630.2893281,0,0,,https://doi.org/10.1016/j.ssi.2013.06.002,E
(SrO)0.9(Y2O3)0.05(V2O3)0.45(Al2O3)0.05,566.7871559,584.2756124,0,0,,https://doi.org/10.1016/j.ssi.2013.06.002,E
(SrO)0.9(Y2O3)0.05(V2O3)0.45(Al2O3)0.05,656.8406164,536.3659832,0,0,,https://doi.org/10.1016/j.ssi.2013.06.002,E
(SrO)0.9(Y2O3)0.05(V2O3)0.45(Al2O3)0.05,784.8018172,487.9134004,0,0,,https://doi.org/10.1016/j.ssi.2013.06.002,E
(SrO)0.9(Y2O3)0.05(V2O3)0.45(Al2O3)0.05,921.128034,430.3506217,0,0,,https://doi.org/10.1016/j.ssi.2013.06.002,E
(BaO)1(CeO2)0.5(ZrO2)0.4(Y2O3)0.05,0.02326411,1001.414063,0,1.7,,https://doi.org/10.1016/S0167-2738(00)00777-3,H
(BaO)1(CeO2)0.5(ZrO2)0.4(Y2O3)0.05,0.019004465,948.9101124,0,1.7,,https://doi.org/10.1016/S0167-2738(00)00777-3,H
(BaO)1(CeO2)0.5(ZrO2)0.4(Y2O3)0.05,0.0157905,900.5611511,0,1.7,,https://doi.org/10.1016/S0167-2738(00)00777-3,H
(BaO)1(CeO2)0.5(ZrO2)0.4(Y2O3)0.05,0.012900947,852,0,1.7,,https://doi.org/10.1016/S0167-2738(00)00777-3,H
(BaO)1(CeO2)0.5(ZrO2)0.4(Y2O3)0.05,0.01072337,800.1907895,0,1.7,,https://doi.org/10.1016/S0167-2738(00)00777-3,H
(BaO)1(CeO2)0.5(ZrO2)0.4(Y2O3)0.05,0.00847197,749.7272727,0,1.7,,https://doi.org/10.1016/S0167-2738(00)00777-3,H
(BaO)1(CeO2)0.5(ZrO2)0.4(Y2O3)0.05,0.007164371,700.880597,0,1.7,,https://doi.org/10.1016/S0167-2738(00)00777-3,H
(BaO)1(CeO2)0.5(ZrO2)0.4(Y2O3)0.05,0.005958181,651.2209632,0,1.7,,https://doi.org/10.1016/S0167-2738(00)00777-3,H
(BaO)1(CeO2)0.5(ZrO2)0.4(Y2O3)0.05,0.004710307,601.6648794,0,1.7,,https://doi.org/10.1016/S0167-2738(00)00777-3,H
(BaO)1(CeO2)0.5(ZrO2)0.4(Y2O3)0.05,0.079350314,1001.193548,20,1.7,,https://doi.org/10.1016/S0167-2738(00)00777-3,O+H
(BaO)1(CeO2)0.5(ZrO2)0.4(Y2O3)0.05,0.036814848,849.1590909,20,1.7,,https://doi.org/10.1016/S0167-2738(00)00777-3,O+H
(BaO)1(CeO2)0.5(ZrO2)0.4(Y2O3)0.05,0.027990362,800.3695652,20,1.7,,https://doi.org/10.1016/S0167-2738(00)00777-3,O+H
(BaO)1(CeO2)0.5(ZrO2)0.4(Y2O3)0.05,0.019770883,750.3160622,20,1.7,,https://doi.org/10.1016/S0167-2738(00)00777-3,O+H
(BaO)1(CeO2)0.5(ZrO2)0.4(Y2O3)0.05,0.014769844,699.9064039,20,1.7,,https://doi.org/10.1016/S0167-2738(00)00777-3,O+H
(BaO)1(CeO2)0.5(ZrO2)0.4(Y2O3)0.05,0.010442409,649.8971963,20,1.7,,https://doi.org/10.1016/S0167-2738(00)00777-3,O+H
(BaO)1(CeO2)0.5(ZrO2)0.4(Y2O3)0.05,0.007118872,599.6067747,20,1.7,,https://doi.org/10.1016/S0167-2738(00)00777-3,O+H
(BaO)1(CeO2)0.5(ZrO2)0.4(Y2O3)0.05,5.00E-03,600,0,1.9,,https://doi.org/10.1039/B902343G,H
(BaO)1(CeO2)0.5(ZrO2)0.4(Y2O3)0.05,8.00E-03,700,20,1.9,,https://doi.org/10.1039/B902343G,H
(SrO)0.7(Y2O3)0.15(V2O3)0.4(Al2O3)0.05,104.5032988,1057.027771,0,0,,https://doi.org/10.1016/j.ssi.2013.06.002,E
(SrO)0.7(Y2O3)0.15(V2O3)0.4(Al2O3)0.05,114.2299535,1004.56996,0,0,,https://doi.org/10.1016/j.ssi.2013.06.002,E
(SrO)0.7(Y2O3)0.15(V2O3)0.4(Al2O3)0.05,124.8619175,965.1861563,0,0,,https://doi.org/10.1016/j.ssi.2013.06.002,E
(SrO)0.7(Y2O3)0.15(V2O3)0.4(Al2O3)0.05,136.135064,914.4256375,0,0,,https://doi.org/10.1016/j.ssi.2013.06.002,E
(SrO)0.7(Y2O3)0.15(V2O3)0.4(Al2O3)0.05,148.802422,870.2621843,0,0,,https://doi.org/10.1016/j.ssi.2013.06.002,E
(SrO)0.7(Y2O3)0.15(V2O3)0.4(Al2O3)0.05,162.6522218,822.0527706,0,0,,https://doi.org/10.1016/j.ssi.2013.06.002,E
(SrO)0.7(Y2O3)0.15(V2O3)0.4(Al2O3)0.05,180.065288,773.7291285,0,0,,https://doi.org/10.1016/j.ssi.2013.06.002,E
(SrO)0.7(Y2O3)0.15(V2O3)0.4(Al2O3)0.05,202.4044237,725.5022466,0,0,,https://doi.org/10.1016/j.ssi.2013.06.002,E
(SrO)0.7(Y2O3)0.15(V2O3)0.4(Al2O3)0.05,234.5686671,676.4088506,0,0,,https://doi.org/10.1016/j.ssi.2013.06.002,E
(SrO)0.7(Y2O3)0.15(V2O3)0.4(Al2O3)0.05,256.3952647,630.2893281,0,0,,https://doi.org/10.1016/j.ssi.2013.06.002,E
(SrO)0.7(Y2O3)0.15(V2O3)0.4(Al2O3)0.05,297.1392344,582.8141446,0,0,,https://doi.org/10.1016/j.ssi.2013.06.002,E
(SrO)0.7(Y2O3)0.15(V2O3)0.4(Al2O3)0.05,344.3499308,536.3659832,0,0,,https://doi.org/10.1016/j.ssi.2013.06.002,E
(SrO)0.7(Y2O3)0.15(V2O3)0.4(Al2O3)0.05,381.2150168,487.9134004,0,0,,https://doi.org/10.1016/j.ssi.2013.06.002,E
(SrO)0.7(Y2O3)0.15(V2O3)0.4(Al2O3)0.05,435.0909,443.9090895,0,0,,https://doi.org/10.1016/j.ssi.2013.06.002,E
(BaO)1(CeO2)0.6(ZrO2)0.3(Y2O3)0.05,0.031045136,1001.414063,0,1.7,,https://doi.org/10.1016/S0167-2738(00)00777-3,H
(BaO)1(CeO2)0.6(ZrO2)0.3(Y2O3)0.05,0.025357492,953.5037594,0,1.7,,https://doi.org/10.1016/S0167-2738(00)00777-3,H
(BaO)1(CeO2)0.6(ZrO2)0.3(Y2O3)0.05,0.021432559,900.5611511,0,1.7,,https://doi.org/10.1016/S0167-2738(00)00777-3,H
(BaO)1(CeO2)0.6(ZrO2)0.3(Y2O3)0.05,0.01874183,850.0636833,0,1.7,,https://doi.org/10.1016/S0167-2738(00)00777-3,H
(BaO)1(CeO2)0.6(ZrO2)0.3(Y2O3)0.05,0.01505745,800.1907895,0,1.7,,https://doi.org/10.1016/S0167-2738(00)00777-3,H
(BaO)1(CeO2)0.6(ZrO2)0.3(Y2O3)0.05,0.013625247,751.33281,0,1.7,,https://doi.org/10.1016/S0167-2738(00)00777-3,H
(BaO)1(CeO2)0.6(ZrO2)0.3(Y2O3)0.05,0.010584808,702.3363229,0,1.7,,https://doi.org/10.1016/S0167-2738(00)00777-3,H
(BaO)1(CeO2)0.6(ZrO2)0.3(Y2O3)0.05,0.008954016,651.2209632,0,1.7,,https://doi.org/10.1016/S0167-2738(00)00777-3,H
(BaO)1(CeO2)0.6(ZrO2)0.3(Y2O3)0.05,0.006727294,601.6648794,0,1.7,,https://doi.org/10.1016/S0167-2738(00)00777-3,H
(BaO)1(CeO2)0.6(ZrO2)0.3(Y2O3)0.05,0.080846164,998.4592275,20,1.7,,https://doi.org/10.1016/S0167-2738(00)00777-3,O+H
(BaO)1(CeO2)0.6(ZrO2)0.3(Y2O3)0.05,0.053127557,900.2673267,20,1.7,,https://doi.org/10.1016/S0167-2738(00)00777-3,O+H
(BaO)1(CeO2)0.6(ZrO2)0.3(Y2O3)0.05,0.030705982,800.3695652,20,1.7,,https://doi.org/10.1016/S0167-2738(00)00777-3,O+H
(BaO)1(CeO2)0.6(ZrO2)0.3(Y2O3)0.05,0.01532716,699.9064039,20,1.7,,https://doi.org/10.1016/S0167-2738(00)00777-3,O+H
(BaO)1(CeO2)0.6(ZrO2)0.3(Y2O3)0.05,0.007386337,600.8938053,20,1.7,,https://doi.org/10.1016/S0167-2738(00)00777-3,O+H
(BaO)1(CeO2)0.6(ZrO2)0.3(Y2O3)0.05,2.33E-03,600,0,1.9,,https://doi.org/10.1039/B902343G,H
(BaO)1(CeO2)0.65(ZrO2)0.25(Y2O3)0.05,0.010873352,500,20,3,,https://doi.org/10.1016/j.jare.2016.12.006,H
(BaO)1(CeO2)0.65(ZrO2)0.25(Y2O3)0.05,0.001060942,400,20,3,,https://doi.org/10.1016/j.jare.2016.12.006,H
(BaO)1(CeO2)0.65(ZrO2)0.25(Y2O3)0.05,0.000631141,300,20,3,,https://doi.org/10.1016/j.jare.2016.12.006,H
(BaO)1(CeO2)0.65(ZrO2)0.25(Y2O3)0.05,0.001170912,500,20,0,,https://doi.org/10.1016/j.jare.2016.12.006,H
(BaO)1(CeO2)0.65(ZrO2)0.25(Y2O3)0.05,9.52364E-05,400,20,0,,https://doi.org/10.1016/j.jare.2016.12.006,H
(BaO)1(CeO2)0.65(ZrO2)0.25(Y2O3)0.05,6.91141E-06,300,20,0,,https://doi.org/10.1016/j.jare.2016.12.006,H
(BaO)1(CeO2)0.7(ZrO2)0.2(Y2O3)0.05,0.040731432,1001.414063,0,1.7,,https://doi.org/10.1016/S0167-2738(00)00777-3,H
(BaO)1(CeO2)0.7(ZrO2)0.2(Y2O3)0.05,0.032711439,951.2026266,0,1.7,,https://doi.org/10.1016/S0167-2738(00)00777-3,H
(BaO)1(CeO2)0.7(ZrO2)0.2(Y2O3)0.05,0.028600995,900.5611511,0,1.7,,https://doi.org/10.1016/S0167-2738(00)00777-3,H
(BaO)1(CeO2)0.7(ZrO2)0.2(Y2O3)0.05,0.024587811,852,0,1.7,,https://doi.org/10.1016/S0167-2738(00)00777-3,H
(BaO)1(CeO2)0.7(ZrO2)0.2(Y2O3)0.05,0.021505155,800.1907895,0,1.7,,https://doi.org/10.1016/S0167-2738(00)00777-3,H
(BaO)1(CeO2)0.7(ZrO2)0.2(Y2O3)0.05,0.018811428,749.7272727,0,1.7,,https://doi.org/10.1016/S0167-2738(00)00777-3,H
(BaO)1(CeO2)0.7(ZrO2)0.2(Y2O3)0.05,0.014863852,700.880597,0,1.7,,https://doi.org/10.1016/S0167-2738(00)00777-3,H
(BaO)1(CeO2)0.7(ZrO2)0.2(Y2O3)0.05,0.012572973,651.2209632,0,1.7,,https://doi.org/10.1016/S0167-2738(00)00777-3,H
(BaO)1(CeO2)0.7(ZrO2)0.2(Y2O3)0.05,0.009131004,601.6648794,0,1.7,,https://doi.org/10.1016/S0167-2738(00)00777-3,H
(BaO)1(CeO2)0.7(ZrO2)0.2(Y2O3)0.05,0.083896763,998.4592275,20,1.7,,https://doi.org/10.1016/S0167-2738(00)00777-3,O+H
(BaO)1(CeO2)0.7(ZrO2)0.2(Y2O3)0.05,0.054120618,900.2673267,20,1.7,,https://doi.org/10.1016/S0167-2738(00)00777-3,O+H
(BaO)1(CeO2)0.7(ZrO2)0.2(Y2O3)0.05,0.031869603,798.4285714,20,1.7,,https://doi.org/10.1016/S0167-2738(00)00777-3,O+H
(BaO)1(CeO2)0.7(ZrO2)0.2(Y2O3)0.05,0.01712849,699.9064039,20,1.7,,https://doi.org/10.1016/S0167-2738(00)00777-3,O+H
(BaO)1(CeO2)0.7(ZrO2)0.2(Y2O3)0.05,0.00840871,600.8938053,20,1.7,,https://doi.org/10.1016/S0167-2738(00)00777-3,O+H
(BaO)1(CeO2)0.55(In2O3)0.2(TiO2)0.05,0.006743908,751.5310245,20,0,,https://doi.org/10.1016/j.jallcom.2012.11.197,H
(BaO)1(CeO2)0.55(In2O3)0.2(TiO2)0.05,0.004671219,700.9368999,20,0,,https://doi.org/10.1016/j.jallcom.2012.11.197,H
(BaO)1(CeO2)0.55(In2O3)0.2(TiO2)0.05,0.003236678,651.4791667,20,0,,https://doi.org/10.1016/j.jallcom.2012.11.197,H
(BaO)1(CeO2)0.55(In2O3)0.2(TiO2)0.05,0.002135821,601.3842365,20,0,,https://doi.org/10.1016/j.jallcom.2012.11.197,H
(BaO)1(CeO2)0.55(In2O3)0.2(TiO2)0.05,0.001156671,550.6658933,20,0,,https://doi.org/10.1016/j.jallcom.2012.11.197,H
(BaO)1(CeO2)0.55(In2O3)0.2(TiO2)0.05,0.000658736,500.4204793,20,0,,https://doi.org/10.1016/j.jallcom.2012.11.197,H
(BaO)1(CeO2)0.55(In2O3)0.2(TiO2)0.05,0.009736805,751.5310245,0,0,,https://doi.org/10.1016/j.jallcom.2012.11.197,H
(BaO)1(CeO2)0.55(In2O3)0.2(TiO2)0.05,0.006457384,700.9368999,0,0,,https://doi.org/10.1016/j.jallcom.2012.11.197,H
(BaO)1(CeO2)0.55(In2O3)0.2(TiO2)0.05,0.00401841,651.4791667,0,0,,https://doi.org/10.1016/j.jallcom.2012.11.197,H
(BaO)1(CeO2)0.55(In2O3)0.2(TiO2)0.05,0.002423784,601.3842365,0,0,,https://doi.org/10.1016/j.jallcom.2012.11.197,H
(BaO)1(CeO2)0.55(In2O3)0.2(TiO2)0.05,0.001417448,550.6658933,0,0,,https://doi.org/10.1016/j.jallcom.2012.11.197,H
(BaO)1(CeO2)0.55(In2O3)0.2(TiO2)0.05,0.000661988,500.4204793,0,0,,https://doi.org/10.1016/j.jallcom.2012.11.197,H
(BaO)1(CeO2)0.55(In2O3)0.2(TiO2)0.05,0.007343816,751.5310245,20,1.9,,https://doi.org/10.1016/j.jallcom.2012.11.197,H
(BaO)1(CeO2)0.55(In2O3)0.2(TiO2)0.05,0.005533715,700.9368999,20,1.9,,https://doi.org/10.1016/j.jallcom.2012.11.197,H
(BaO)1(CeO2)0.55(In2O3)0.2(TiO2)0.05,0.003762002,651.4791667,20,1.9,,https://doi.org/10.1016/j.jallcom.2012.11.197,H
(BaO)1(CeO2)0.55(In2O3)0.2(TiO2)0.05,0.002492574,601.3842365,20,1.9,,https://doi.org/10.1016/j.jallcom.2012.11.197,H
(BaO)1(CeO2)0.55(In2O3)0.2(TiO2)0.05,0.001609548,550.6658933,20,1.9,,https://doi.org/10.1016/j.jallcom.2012.11.197,H
(BaO)1(CeO2)0.55(In2O3)0.2(TiO2)0.05,0.00112274,500.4204793,20,1.9,,https://doi.org/10.1016/j.jallcom.2012.11.197,H
(BaO)1(CeO2)0.55(In2O3)0.2(TiO2)0.05,0.01139561,751.5310245,0,1.9,,https://doi.org/10.1016/j.jallcom.2012.11.197,H
(BaO)1(CeO2)0.55(In2O3)0.2(TiO2)0.05,0.008220413,700.9368999,0,1.9,,https://doi.org/10.1016/j.jallcom.2012.11.197,H
(BaO)1(CeO2)0.55(In2O3)0.2(TiO2)0.05,0.005554959,651.4791667,0,1.9,,https://doi.org/10.1016/j.jallcom.2012.11.197,H
(BaO)1(CeO2)0.55(In2O3)0.2(TiO2)0.05,0.003294052,601.3842365,0,1.9,,https://doi.org/10.1016/j.jallcom.2012.11.197,H
(BaO)1(CeO2)0.55(In2O3)0.2(TiO2)0.05,0.002225962,550.6658933,0,1.9,,https://doi.org/10.1016/j.jallcom.2012.11.197,H
(BaO)1(CeO2)0.55(In2O3)0.2(TiO2)0.05,0.001158323,500.4204793,0,1.9,,https://doi.org/10.1016/j.jallcom.2012.11.197,H
(BaO)1(CeO2)0.65(In2O3)0.15(TiO2)0.05,0.007823981,751.5310245,20,0,,https://doi.org/10.1016/j.jallcom.2012.11.197,H
(BaO)1(CeO2)0.65(In2O3)0.15(TiO2)0.05,0.005555191,700.9368999,20,0,,https://doi.org/10.1016/j.jallcom.2012.11.197,H
(BaO)1(CeO2)0.65(In2O3)0.15(TiO2)0.05,0.004044582,651.4791667,20,0,,https://doi.org/10.1016/j.jallcom.2012.11.197,H
(BaO)1(CeO2)0.65(In2O3)0.15(TiO2)0.05,0.002668633,601.3842365,20,0,,https://doi.org/10.1016/j.jallcom.2012.11.197,H
(BaO)1(CeO2)0.65(In2O3)0.15(TiO2)0.05,0.001635865,550.6658933,20,0,,https://doi.org/10.1016/j.jallcom.2012.11.197,H
(BaO)1(CeO2)0.65(In2O3)0.15(TiO2)0.05,0.001028632,500.4204793,20,0,,https://doi.org/10.1016/j.jallcom.2012.11.197,H
(BaO)1(CeO2)0.65(In2O3)0.15(TiO2)0.05,0.012218222,751.5310245,0,0,,https://doi.org/10.1016/j.jallcom.2012.11.197,H
(BaO)1(CeO2)0.65(In2O3)0.15(TiO2)0.05,0.008370139,700.9368999,0,0,,https://doi.org/10.1016/j.jallcom.2012.11.197,H
(BaO)1(CeO2)0.65(In2O3)0.15(TiO2)0.05,0.005378772,651.4791667,0,0,,https://doi.org/10.1016/j.jallcom.2012.11.197,H
(BaO)1(CeO2)0.65(In2O3)0.15(TiO2)0.05,0.003575826,601.3842365,0,0,,https://doi.org/10.1016/j.jallcom.2012.11.197,H
(BaO)1(CeO2)0.65(In2O3)0.15(TiO2)0.05,0.002025055,550.6658933,0,0,,https://doi.org/10.1016/j.jallcom.2012.11.197,H
(BaO)1(CeO2)0.65(In2O3)0.15(TiO2)0.05,0.001042398,500.4204793,0,0,,https://doi.org/10.1016/j.jallcom.2012.11.197,H
(BaO)1(CeO2)0.65(In2O3)0.15(TiO2)0.05,0.008351947,751.5310245,20,1.9,,https://doi.org/10.1016/j.jallcom.2012.11.197,H
(BaO)1(CeO2)0.65(In2O3)0.15(TiO2)0.05,0.006133516,700.9368999,20,1.9,,https://doi.org/10.1016/j.jallcom.2012.11.197,H
(BaO)1(CeO2)0.65(In2O3)0.15(TiO2)0.05,0.004742176,651.4791667,20,1.9,,https://doi.org/10.1016/j.jallcom.2012.11.197,H
(BaO)1(CeO2)0.65(In2O3)0.15(TiO2)0.05,0.003142004,601.3842365,20,1.9,,https://doi.org/10.1016/j.jallcom.2012.11.197,H
(BaO)1(CeO2)0.65(In2O3)0.15(TiO2)0.05,0.002248823,550.6658933,20,1.9,,https://doi.org/10.1016/j.jallcom.2012.11.197,H
(BaO)1(CeO2)0.65(In2O3)0.15(TiO2)0.05,0.001568667,500.4204793,20,1.9,,https://doi.org/10.1016/j.jallcom.2012.11.197,H
(BaO)1(CeO2)0.65(In2O3)0.15(TiO2)0.05,0.013862577,751.5310245,0,1.9,,https://doi.org/10.1016/j.jallcom.2012.11.197,H
(BaO)1(CeO2)0.65(In2O3)0.15(TiO2)0.05,0.010675022,700.9368999,0,1.9,,https://doi.org/10.1016/j.jallcom.2012.11.197,H
(BaO)1(CeO2)0.65(In2O3)0.15(TiO2)0.05,0.006757518,651.4791667,0,1.9,,https://doi.org/10.1016/j.jallcom.2012.11.197,H
(BaO)1(CeO2)0.65(In2O3)0.15(TiO2)0.05,0.004566405,601.3842365,0,1.9,,https://doi.org/10.1016/j.jallcom.2012.11.197,H
(BaO)1(CeO2)0.65(In2O3)0.15(TiO2)0.05,0.002707847,550.6658933,0,1.9,,https://doi.org/10.1016/j.jallcom.2012.11.197,H
(BaO)1(CeO2)0.65(In2O3)0.15(TiO2)0.05,0.001890583,500.4204793,0,1.9,,https://doi.org/10.1016/j.jallcom.2012.11.197,H
(BaO)1(CeO2)0.7(Y2O3)0.125(ZnO)0.05,0.070108462,982.6458898,0,1.9,0.877,https://doi.org/10.1016/j.ijhydene.2016.02.073,H
(BaO)1(CeO2)0.7(Y2O3)0.125(ZnO)0.05,0.058638851,933.5972222,0,1.9,0.877,https://doi.org/10.1016/j.ijhydene.2016.02.073,H
(BaO)1(CeO2)0.7(Y2O3)0.125(ZnO)0.05,0.049056268,883.40599,0,1.9,0.877,https://doi.org/10.1016/j.ijhydene.2016.02.073,H
(BaO)1(CeO2)0.7(Y2O3)0.125(ZnO)0.05,0.037520619,824.0797159,0,1.9,0.877,https://doi.org/10.1016/j.ijhydene.2016.02.073,H
(BaO)1(CeO2)0.7(Y2O3)0.125(ZnO)0.05,0.031395911,778.4372163,0,1.9,0.877,https://doi.org/10.1016/j.ijhydene.2016.02.073,H
(BaO)1(CeO2)0.7(Y2O3)0.125(ZnO)0.05,0.02401312,729.1629416,0,1.9,0.877,https://doi.org/10.1016/j.ijhydene.2016.02.073,H
(BaO)1(CeO2)0.7(Y2O3)0.125(ZnO)0.05,0.019214625,684.3002755,0,1.9,0.877,https://doi.org/10.1016/j.ijhydene.2016.02.073,H
(BaO)1(CeO2)0.7(Y2O3)0.125(ZnO)0.05,0.015384996,634.310705,0,1.9,0.877,https://doi.org/10.1016/j.ijhydene.2016.02.073,H
(BaO)1(CeO2)0.7(Y2O3)0.125(ZnO)0.05,0.01288756,589.2828784,0,1.9,0.877,https://doi.org/10.1016/j.ijhydene.2016.02.073,H
(BaO)1(CeO2)0.7(Y2O3)0.125(ZnO)0.05,0.010325671,541.2940832,0,1.9,0.877,https://doi.org/10.1016/j.ijhydene.2016.02.073,H
(BaO)1(CeO2)0.7(Y2O3)0.125(ZnO)0.05,0.006910614,491.9972482,0,1.9,0.877,https://doi.org/10.1016/j.ijhydene.2016.02.073,H
(BaO)1(CeO2)0.7(Y2O3)0.125(ZnO)0.05,0.004423737,442.7569516,0,1.9,0.877,https://doi.org/10.1016/j.ijhydene.2016.02.073,H
(BaO)1(CeO2)0.7(Y2O3)0.125(ZnO)0.05,0.002365444,394.6272815,0,1.9,0.877,https://doi.org/10.1016/j.ijhydene.2016.02.073,H
(BaO)1(CeO2)0.7(Y2O3)0.125(ZnO)0.05,0.000843587,344.2291297,0,1.9,0.877,https://doi.org/10.1016/j.ijhydene.2016.02.073,H
(BaO)1(CeO2)0.7(Y2O3)0.125(ZnO)0.05,0.00027517,295.042501,0,1.9,0.877,https://doi.org/10.1016/j.ijhydene.2016.02.073,H