Composition,Conductivity (S/cm),Temperature (degC),PO2 (%),PH2O (%),Grainsize,Ref,Carrier Type
(La2O3)0.4(SrO)0.2(Cr2O3)0.25(Mn2O3)0.25,3.686794493,647.5051732,0,3,,https://doi.org/10.1016/j.ssi.2006.02.025,O+E
(La2O3)0.4(SrO)0.2(Cr2O3)0.25(Mn2O3)0.25,3.507407684,631.6089828,0,3,,https://doi.org/10.1016/j.ssi.2006.02.025,O+E
(La2O3)0.4(SrO)0.2(Cr2O3)0.25(Mn2O3)0.25,3.478701618,623.8609865,0,3,,https://doi.org/10.1016/j.ssi.2006.02.025,O+E
(La2O3)0.4(SrO)0.2(Cr2O3)0.25(Mn2O3)0.25,3.354679315,611.2358434,0,3,,https://doi.org/10.1016/j.ssi.2006.02.025,O+E
(La2O3)0.4(SrO)0.2(Cr2O3)0.25(Mn2O3)0.25,3.289305129,598.9688184,0,3,,https://doi.org/10.1016/j.ssi.2006.02.025,O+E
(La2O3)0.4(SrO)0.2(Cr2O3)0.25(Mn2O3)0.25,3.153424979,591.7676369,0,3,,https://doi.org/10.1016/j.ssi.2006.02.025,O+E
(La2O3)0.4(SrO)0.2(Cr2O3)0.25(Mn2O3)0.25,3.047742936,577.7163031,0,3,,https://doi.org/10.1016/j.ssi.2006.02.025,O+E
(La2O3)0.4(SrO)0.2(Cr2O3)0.25(Mn2O3)0.25,3.055987928,575.4210884,0,3,,https://doi.org/10.1016/j.ssi.2006.02.025,O+E
(La2O3)0.4(SrO)0.2(Cr2O3)0.25(Mn2O3)0.25,2.944770864,564.1213072,0,3,,https://doi.org/10.1016/j.ssi.2006.02.025,O+E
(La2O3)0.4(SrO)0.2(Cr2O3)0.25(Mn2O3)0.25,2.854931548,561.891798,0,3,,https://doi.org/10.1016/j.ssi.2006.02.025,O+E
(La2O3)0.4(SrO)0.2(Cr2O3)0.25(Mn2O3)0.25,2.72585311,544.5144291,0,3,,https://doi.org/10.1016/j.ssi.2006.02.025,O+E
(La2O3)0.4(SrO)0.2(Cr2O3)0.25(Mn2O3)0.25,2.715250574,534.017827,0,3,,https://doi.org/10.1016/j.ssi.2006.02.025,O+E
(La2O3)0.4(SrO)0.2(Cr2O3)0.25(Mn2O3)0.25,2.558092118,527.8456931,0,3,,https://doi.org/10.1016/j.ssi.2006.02.025,O+E
(La2O3)0.4(SrO)0.2(Cr2O3)0.25(Mn2O3)0.25,2.577656602,521.7672524,0,3,,https://doi.org/10.1016/j.ssi.2006.02.025,O+E
(La2O3)0.4(SrO)0.2(Cr2O3)0.25(Mn2O3)0.25,2.43427079,513.8068232,0,3,,https://doi.org/10.1016/j.ssi.2006.02.025,O+E
(La2O3)0.4(SrO)0.2(Cr2O3)0.25(Mn2O3)0.25,2.423627549,504.0732314,0,3,,https://doi.org/10.1016/j.ssi.2006.02.025,O+E
(La2O3)0.4(SrO)0.2(Cr2O3)0.25(Mn2O3)0.25,2.360820089,498.3490123,0,3,,https://doi.org/10.1016/j.ssi.2006.02.025,O+E
(La2O3)0.4(SrO)0.2(Cr2O3)0.25(Mn2O3)0.25,2.299515475,492.7085101,0,3,,https://doi.org/10.1016/j.ssi.2006.02.025,O+E
(La2O3)0.4(SrO)0.2(Cr2O3)0.25(Mn2O3)0.25,2.245096954,485.3168399,0,3,,https://doi.org/10.1016/j.ssi.2006.02.025,O+E
(La2O3)0.4(SrO)0.2(Cr2O3)0.25(Mn2O3)0.25,2.103792026,470.9535178,0,3,,https://doi.org/10.1016/j.ssi.2006.02.025,O+E
(La2O3)0.4(SrO)0.2(Cr2O3)0.25(Mn2O3)0.25,2.144560039,469.1976472,0,3,,https://doi.org/10.1016/j.ssi.2006.02.025,O+E
(La2O3)0.4(SrO)0.2(Cr2O3)0.25(Mn2O3)0.25,2.063081928,460.5304085,0,3,,https://doi.org/10.1016/j.ssi.2006.02.025,O+E
(La2O3)0.4(SrO)0.2(Cr2O3)0.25(Mn2O3)0.25,1.975283119,455.4276161,0,3,,https://doi.org/10.1016/j.ssi.2006.02.025,O+E
(La2O3)0.4(SrO)0.2(Cr2O3)0.25(Mn2O3)0.25,1.8411523,445.4372553,0,3,,https://doi.org/10.1016/j.ssi.2006.02.025,O+E
(La2O3)0.4(SrO)0.2(Cr2O3)0.25(Mn2O3)0.25,1.782567638,432.5270993,0,3,,https://doi.org/10.1016/j.ssi.2006.02.025,O+E
(La2O3)0.4(SrO)0.2(Cr2O3)0.25(Mn2O3)0.25,1.739062344,426.2469111,0,3,,https://doi.org/10.1016/j.ssi.2006.02.025,O+E
(La2O3)0.4(SrO)0.2(Cr2O3)0.25(Mn2O3)0.25,1.643962812,418.5533672,0,3,,https://doi.org/10.1016/j.ssi.2006.02.025,O+E
(La2O3)0.4(SrO)0.2(Cr2O3)0.25(Mn2O3)0.25,1.634323638,411.0226001,0,3,,https://doi.org/10.1016/j.ssi.2006.02.025,O+E
(La2O3)0.4(SrO)0.2(Cr2O3)0.25(Mn2O3)0.25,1.564036867,406.5832795,0,3,,https://doi.org/10.1016/j.ssi.2006.02.025,O+E
(La2O3)0.4(SrO)0.2(Cr2O3)0.25(Mn2O3)0.25,1.503122108,399.3141051,0,3,,https://doi.org/10.1016/j.ssi.2006.02.025,O+E
(La2O3)0.4(SrO)0.2(Cr2O3)0.25(Mn2O3)0.25,1.435248273,396.4471036,0,3,,https://doi.org/10.1016/j.ssi.2006.02.025,O+E
(La2O3)0.4(SrO)0.2(Cr2O3)0.25(Mn2O3)0.25,1.408454479,386.608852,0,3,,https://doi.org/10.1016/j.ssi.2006.02.025,O+E
(La2O3)0.4(SrO)0.2(Cr2O3)0.25(Mn2O3)0.25,1.39077247,383.8532787,0,3,,https://doi.org/10.1016/j.ssi.2006.02.025,O+E
(La2O3)0.4(SrO)0.2(Cr2O3)0.25(Mn2O3)0.25,1.347569361,382.4798112,0,3,,https://doi.org/10.1016/j.ssi.2006.02.025,O+E
(La2O3)0.4(SrO)0.2(Cr2O3)0.25(Mn2O3)0.25,1.316566454,375.7145721,0,3,,https://doi.org/10.1016/j.ssi.2006.02.025,O+E
(La2O3)0.4(SrO)0.2(Cr2O3)0.25(Mn2O3)0.25,1.278261528,373.044913,0,3,,https://doi.org/10.1016/j.ssi.2006.02.025,O+E
(La2O3)0.4(SrO)0.2(Cr2O3)0.25(Mn2O3)0.25,1.212267104,363.8777704,0,3,,https://doi.org/10.1016/j.ssi.2006.02.025,O+E
(La2O3)0.4(SrO)0.2(Cr2O3)0.25(Mn2O3)0.25,1.2353267,362.5905272,0,3,,https://doi.org/10.1016/j.ssi.2006.02.025,O+E
(La2O3)0.4(SrO)0.2(Cr2O3)0.25(Mn2O3)0.25,1.149448374,354.9671448,0,3,,https://doi.org/10.1016/j.ssi.2006.02.025,O+E
(La2O3)0.4(SrO)0.2(Cr2O3)0.25(Mn2O3)0.25,1.12251705,348.755215,0,3,,https://doi.org/10.1016/j.ssi.2006.02.025,O+E
(La2O3)0.4(SrO)0.2(Cr2O3)0.25(Mn2O3)0.25,1.06937564,347.5244673,0,3,,https://doi.org/10.1016/j.ssi.2006.02.025,O+E
(La2O3)0.4(SrO)0.2(Cr2O3)0.25(Mn2O3)0.25,1.013597164,339.0625283,0,3,,https://doi.org/10.1016/j.ssi.2006.02.025,O+E
(La2O3)0.4(SrO)0.2(Cr2O3)0.25(Mn2O3)0.25,1.04828506,339.0625283,0,3,,https://doi.org/10.1016/j.ssi.2006.02.025,O+E
(La2O3)0.4(SrO)0.2(Cr2O3)0.25(Mn2O3)0.25,0.960549427,330.8282712,0,3,,https://doi.org/10.1016/j.ssi.2006.02.025,O+E
(La2O3)0.4(SrO)0.2(Cr2O3)0.25(Mn2O3)0.25,0.935903883,326.2222096,0,3,,https://doi.org/10.1016/j.ssi.2006.02.025,O+E
(La2O3)0.4(SrO)0.2(Cr2O3)0.25(Mn2O3)0.25,0.893223288,323.947212,0,3,,https://doi.org/10.1016/j.ssi.2006.02.025,O+E
(La2O3)0.4(SrO)0.2(Cr2O3)0.25(Mn2O3)0.25,0.873513666,317.2177313,0,3,,https://doi.org/10.1016/j.ssi.2006.02.025,O+E
(La2O3)0.4(SrO)0.2(Cr2O3)0.25(Mn2O3)0.25,0.860556185,316.1120314,0,3,,https://doi.org/10.1016/j.ssi.2006.02.025,O+E
(La2O3)0.4(SrO)0.2(Cr2O3)0.25(Mn2O3)0.25,0.789596562,307.4032642,0,3,,https://doi.org/10.1016/j.ssi.2006.02.025,O+E
(La2O3)0.4(SrO)0.2(Cr2O3)0.25(Mn2O3)0.25,0.77192786,301.0429269,0,3,,https://doi.org/10.1016/j.ssi.2006.02.025,O+E
(La2O3)0.4(SrO)0.2(Cr2O3)0.25(Mn2O3)0.25,0.747751439,299.9936627,0,3,,https://doi.org/10.1016/j.ssi.2006.02.025,O+E
(La2O3)0.4(SrO)0.2(Cr2O3)0.25(Mn2O3)0.25,0.709282328,291.7547835,0,3,,https://doi.org/10.1016/j.ssi.2006.02.025,O+E
(La2O3)0.4(SrO)0.2(Cr2O3)0.25(Mn2O3)0.25,13.44930988,900,6.48396E-12,0,,https://doi.org/10.1016/j.ssi.2006.02.025,O+E
(La2O3)0.4(SrO)0.2(Cr2O3)0.25(Mn2O3)0.25,29.65514146,900,1.71234E-09,0,,https://doi.org/10.1016/j.ssi.2006.02.025,O+E
(La2O3)0.4(SrO)0.2(Cr2O3)0.25(Mn2O3)0.25,42.83610752,900,0.010567688,0,,https://doi.org/10.1016/j.ssi.2006.02.025,O+E
(La2O3)0.4(SrO)0.2(Cr2O3)0.25(Mn2O3)0.25,48.15706385,900,19.82896289,0,,https://doi.org/10.1016/j.ssi.2006.02.025,O+E
(La2O3)0.40375(SrO)0.1425(Mn2O3)0.25(Ti2O3)0.25,4.272727273,950,7.01704E-17,0,,https://doi.org/10.1016/j.ssi.2013.01.005,E
(La2O3)0.40375(SrO)0.1425(Mn2O3)0.25(Ti2O3)0.25,4.545454545,950,1.4251E-16,0,,https://doi.org/10.1016/j.ssi.2013.01.005,E
(La2O3)0.40375(SrO)0.1425(Mn2O3)0.25(Ti2O3)0.25,4.909090909,950,2.03092E-16,0,,https://doi.org/10.1016/j.ssi.2013.01.005,E
(La2O3)0.40375(SrO)0.1425(Mn2O3)0.25(Ti2O3)0.25,5.363636364,950,5.87802E-16,0,,https://doi.org/10.1016/j.ssi.2013.01.005,E
(La2O3)0.40375(SrO)0.1425(Mn2O3)0.25(Ti2O3)0.25,5.818181818,950,2.42446E-15,0,,https://doi.org/10.1016/j.ssi.2013.01.005,E
(La2O3)0.40375(SrO)0.1425(Mn2O3)0.25(Ti2O3)0.25,6.181818182,950,1E-14,0,,https://doi.org/10.1016/j.ssi.2013.01.005,E
(La2O3)0.40375(SrO)0.1425(Mn2O3)0.25(Ti2O3)0.25,6.454545455,950,4.12463E-14,0,,https://doi.org/10.1016/j.ssi.2013.01.005,E
(La2O3)0.40375(SrO)0.1425(Mn2O3)0.25(Ti2O3)0.25,6.818181818,950,1.70125E-13,0,,https://doi.org/10.1016/j.ssi.2013.01.005,E
(La2O3)0.40375(SrO)0.1425(Mn2O3)0.25(Ti2O3)0.25,7,950,1E-12,0,,https://doi.org/10.1016/j.ssi.2013.01.005,E
(La2O3)0.40375(SrO)0.1425(Mn2O3)0.25(Ti2O3)0.25,7,950,5.87802E-12,0,,https://doi.org/10.1016/j.ssi.2013.01.005,E
(La2O3)0.40375(SrO)0.1425(Mn2O3)0.25(Ti2O3)0.25,7,950,4.92388E-11,0,,https://doi.org/10.1016/j.ssi.2013.01.005,E
(La2O3)0.40375(SrO)0.1425(Mn2O3)0.25(Ti2O3)0.25,7,950,8.37678E-10,0,,https://doi.org/10.1016/j.ssi.2013.01.005,E
(La2O3)0.40375(SrO)0.1425(Mn2O3)0.25(Ti2O3)0.25,7.090909091,950,1.4251E-08,0,,https://doi.org/10.1016/j.ssi.2013.01.005,E
(La2O3)0.40375(SrO)0.1425(Mn2O3)0.25(Ti2O3)0.25,7,950,1.19378E-07,0,,https://doi.org/10.1016/j.ssi.2013.01.005,E
(La2O3)0.40375(SrO)0.1425(Mn2O3)0.25(Ti2O3)0.25,7,950,5.87802E-06,0,,https://doi.org/10.1016/j.ssi.2013.01.005,E
(La2O3)0.40375(SrO)0.1425(Mn2O3)0.25(Ti2O3)0.25,7,950,0.00014251,0,,https://doi.org/10.1016/j.ssi.2013.01.005,E
(La2O3)0.40375(SrO)0.1425(Mn2O3)0.25(Ti2O3)0.25,7.090909091,950,0.01,0,,https://doi.org/10.1016/j.ssi.2013.01.005,E
(La2O3)0.40375(SrO)0.1425(Mn2O3)0.25(Ti2O3)0.25,7,950,1,0,,https://doi.org/10.1016/j.ssi.2013.01.005,E
(La2O3)0.40375(SrO)0.1425(Mn2O3)0.25(Ti2O3)0.25,3.769230769,800,1.54837E-17,0,,https://doi.org/10.1016/j.ssi.2013.01.005,E
(La2O3)0.40375(SrO)0.1425(Mn2O3)0.25(Ti2O3)0.25,3.769230769,800,4.0513E-16,0,,https://doi.org/10.1016/j.ssi.2013.01.005,E
(La2O3)0.40375(SrO)0.1425(Mn2O3)0.25(Ti2O3)0.25,3.769230769,800,1.06003E-14,0,,https://doi.org/10.1016/j.ssi.2013.01.005,E
(La2O3)0.40375(SrO)0.1425(Mn2O3)0.25(Ti2O3)0.25,4,800,4.4215E-13,0,,https://doi.org/10.1016/j.ssi.2013.01.005,E
(La2O3)0.40375(SrO)0.1425(Mn2O3)0.25(Ti2O3)0.25,4,800,1.15689E-11,0,,https://doi.org/10.1016/j.ssi.2013.01.005,E
(La2O3)0.40375(SrO)0.1425(Mn2O3)0.25(Ti2O3)0.25,4,800,1.1911E-10,0,,https://doi.org/10.1016/j.ssi.2013.01.005,E
(La2O3)0.40375(SrO)0.1425(Mn2O3)0.25(Ti2O3)0.25,4.230769231,800,3.4013E-06,0,,https://doi.org/10.1016/j.ssi.2013.01.005,E
(La2O3)0.40375(SrO)0.1425(Mn2O3)0.25(Ti2O3)0.25,4.230769231,800,5.58259E-05,0,,https://doi.org/10.1016/j.ssi.2013.01.005,E
(La2O3)0.40375(SrO)0.1425(Mn2O3)0.25(Ti2O3)0.25,4.230769231,800,0.000916274,0,,https://doi.org/10.1016/j.ssi.2013.01.005,E
(La2O3)0.40375(SrO)0.1425(Mn2O3)0.25(Ti2O3)0.25,4,800,0.009433732,0,,https://doi.org/10.1016/j.ssi.2013.01.005,E
(La2O3)0.40375(SrO)0.1425(Mn2O3)0.25(Ti2O3)0.25,4,800,0.097127402,0,,https://doi.org/10.1016/j.ssi.2013.01.005,E
(La2O3)0.40375(SrO)0.1425(Mn2O3)0.25(Ti2O3)0.25,4,800,1,0,,https://doi.org/10.1016/j.ssi.2013.01.005,E
(La2O3)0.40375(SrO)0.1425(Mn2O3)0.25(Ti2O3)0.25,4,800,26.16504699,0,,https://doi.org/10.1016/j.ssi.2013.01.005,E
(Nd2O3)0.45(CaO)0.1(Al2O3)0.25(Ga2O3)0.25,0.03994625,950,4.48E-20,0,,10.1149/1.2059351,O
(Nd2O3)0.45(CaO)0.1(Al2O3)0.25(Ga2O3)0.25,0.039608279,950,3.74E-17,0,,10.1149/1.2059351,O
(Nd2O3)0.45(CaO)0.1(Al2O3)0.25(Ga2O3)0.25,0.040287104,950,4.64E-12,0,,10.1149/1.2059351,O
(Nd2O3)0.45(CaO)0.1(Al2O3)0.25(Ga2O3)0.25,0.039273169,950,9.09E-06,0,,10.1149/1.2059351,O
(Nd2O3)0.45(CaO)0.1(Al2O3)0.25(Ga2O3)0.25,0.044611466,950,4.22E+01,0,,10.1149/1.2059351,O
(Nd2O3)0.45(CaO)0.1(Al2O3)0.25(Ga2O3)0.25,0.037240023,950,1.00E-03,0,,10.1149/1.2059351,O
(Nd2O3)0.45(CaO)0.1(Al2O3)0.25(Ga2O3)0.25,0.117366499,900,2.34E-20,0,,10.1149/1.2059351,O
(Nd2O3)0.45(CaO)0.1(Al2O3)0.25(Ga2O3)0.25,0.116641969,900,1.56E-18,0,,10.1149/1.2059351,O
(Nd2O3)0.45(CaO)0.1(Al2O3)0.25(Ga2O3)0.25,0.118944689,900,1.01E-12,0,,10.1149/1.2059351,O
(Nd2O3)0.45(CaO)0.1(Al2O3)0.25(Ga2O3)0.25,0.121653428,900,5.42E-03,0,,10.1149/1.2059351,O
(Nd2O3)0.45(CaO)0.1(Al2O3)0.25(Ga2O3)0.25,0.130662632,900,1.14E+02,0,,10.1149/1.2059351,O
(Nd2O3)0.45(CaO)0.1(Al2O3)0.25(Ga2O3)0.25,0.069055331,800,1.30E-20,0,,10.1149/1.2059351,O
(Nd2O3)0.45(CaO)0.1(Al2O3)0.25(Ga2O3)0.25,0.067087205,800,8.72E-19,0,,10.1149/1.2059351,O
(Nd2O3)0.45(CaO)0.1(Al2O3)0.25(Ga2O3)0.25,0.067510832,800,1.78E-10,0,,10.1149/1.2059351,O
(Nd2O3)0.45(CaO)0.1(Al2O3)0.25(Ga2O3)0.25,0.068945863,800,1.05E-02,0,,10.1149/1.2059351,O
(Nd2O3)0.45(CaO)0.1(Al2O3)0.25(Ga2O3)0.25,0.072916045,800,8.67E+01,0,,10.1149/1.2059351,O
(Nd2O3)0.45(CaO)0.1(Al2O3)0.25(Ga2O3)0.25,0.03338304,700,2.98E-20,0,,10.1149/1.2059351,O
(Nd2O3)0.45(CaO)0.1(Al2O3)0.25(Ga2O3)0.25,0.033170168,700,1.07E-18,0,,10.1149/1.2059351,O
(Nd2O3)0.45(CaO)0.1(Al2O3)0.25(Ga2O3)0.25,0.031916241,700,1.42E-09,0,,10.1149/1.2059351,O
(Nd2O3)0.45(CaO)0.1(Al2O3)0.25(Ga2O3)0.25,0.032093132,700,2.81E-02,0,,10.1149/1.2059351,O
(Nd2O3)0.45(CaO)0.1(Al2O3)0.25(Ga2O3)0.25,0.034974479,700,9.11E+01,0,,10.1149/1.2059351,O
(Nd2O3)0.45(CaO)0.1(Al2O3)0.25(Ga2O3)0.25,0.010632823,600,9.28E-21,0,,10.1149/1.2059351,O
(Nd2O3)0.45(CaO)0.1(Al2O3)0.25(Ga2O3)0.25,0.010341417,600,1.90E-17,0,,10.1149/1.2059351,O
(Nd2O3)0.45(CaO)0.1(Al2O3)0.25(Ga2O3)0.25,0.010144326,600,7.49E-03,0,,10.1149/1.2059351,O
(Nd2O3)0.45(CaO)0.1(Al2O3)0.25(Ga2O3)0.25,0.010893347,600,8.44E+01,0,,10.1149/1.2059351,O
(La2O3)0.5(NiO)0.5(V2O3)0.125(TiO2)0.25,0.302649527,800,3.66674E-13,0,,https://doi.org/10.1016/S0167-2738(01)00870-0,E
(La2O3)0.5(NiO)0.5(V2O3)0.125(TiO2)0.25,0.20147446,800,3.17665E-14,0,,https://doi.org/10.1016/S0167-2738(01)00870-0,E
(La2O3)0.5(NiO)0.5(V2O3)0.125(TiO2)0.25,0.15143979,800,2.97769E-15,0,,https://doi.org/10.1016/S0167-2738(01)00870-0,E
(La2O3)0.5(NiO)0.5(V2O3)0.125(TiO2)0.25,0.100813803,800,5.93076E-16,0,,https://doi.org/10.1016/S0167-2738(01)00870-0,E
(La2O3)0.5(NiO)0.5(V2O3)0.125(TiO2)0.25,0.033084913,800,6.76083E-18,0,,https://doi.org/10.1016/S0167-2738(01)00870-0,E
(La2O3)0.5(NiO)0.5(V2O3)0.125(TiO2)0.25,8.40E-03,25,21,0,,https://doi.org/10.1016/S0167-2738(01)00870-0,E
(La2O3)0.5(NiO)0.5(V2O3)0.125(TiO2)0.25,5.80E-01,800,21,0,,https://doi.org/10.1016/S0167-2738(01)00870-0,E
(La2O3)0.5(NiO)0.5(V2O3)0.125(TiO2)0.25,3.20E-02,800,0,0,,https://doi.org/10.1016/S0167-2738(01)00870-0,E
(SrO)1(Fe2O3)0.35(NbO2)0.05(MoO2)0.25,17.55102041,294.4546851,20,0,,https://doi.org/10.1016/j.ceramint.2019.03.130,O+E
(SrO)1(Fe2O3)0.35(NbO2)0.05(MoO2)0.25,20.40816327,343.7019969,20,0,,https://doi.org/10.1016/j.ceramint.2019.03.130,O+E
(SrO)1(Fe2O3)0.35(NbO2)0.05(MoO2)0.25,22.65306122,393.0414747,20,0,,https://doi.org/10.1016/j.ceramint.2019.03.130,O+E
(SrO)1(Fe2O3)0.35(NbO2)0.05(MoO2)0.25,24.69387755,446.9278034,20,0,,https://doi.org/10.1016/j.ceramint.2019.03.130,O+E
(SrO)1(Fe2O3)0.35(NbO2)0.05(MoO2)0.25,26.73469388,498.5560676,20,0,,https://doi.org/10.1016/j.ceramint.2019.03.130,O+E
(SrO)1(Fe2O3)0.35(NbO2)0.05(MoO2)0.25,27.55102041,548.1105991,20,0,,https://doi.org/10.1016/j.ceramint.2019.03.130,O+E
(SrO)1(Fe2O3)0.35(NbO2)0.05(MoO2)0.25,27.75510204,597.7572965,20,0,,https://doi.org/10.1016/j.ceramint.2019.03.130,E
(SrO)1(Fe2O3)0.35(NbO2)0.05(MoO2)0.25,27.14285714,647.5268817,20,0,,https://doi.org/10.1016/j.ceramint.2019.03.130,E
(SrO)1(Fe2O3)0.35(NbO2)0.05(MoO2)0.25,25.91836735,697.3886329,20,0,,https://doi.org/10.1016/j.ceramint.2019.03.130,E
(SrO)1(Fe2O3)0.35(NbO2)0.05(MoO2)0.25,24.28571429,747.311828,20,0,,https://doi.org/10.1016/j.ceramint.2019.03.130,E
(SrO)1(Fe2O3)0.35(NbO2)0.05(MoO2)0.25,22.44897959,797.265745,20,0,,https://doi.org/10.1016/j.ceramint.2019.03.130,E
(SrO)1(Fe2O3)0.35(NbO2)0.05(MoO2)0.25,4.570863741,299.0178553,0,3,,https://doi.org/10.1016/j.ceramint.2019.03.130,O+E
(SrO)1(Fe2O3)0.35(NbO2)0.05(MoO2)0.25,5.357000147,347.540432,0,3,,https://doi.org/10.1016/j.ceramint.2019.03.130,O+E
(SrO)1(Fe2O3)0.35(NbO2)0.05(MoO2)0.25,7.142526657,398.1976487,0,3,,https://doi.org/10.1016/j.ceramint.2019.03.130,O+E
(SrO)1(Fe2O3)0.35(NbO2)0.05(MoO2)0.25,8.727418032,451.0778355,0,3,,https://doi.org/10.1016/j.ceramint.2019.03.130,O+E
(SrO)1(Fe2O3)0.35(NbO2)0.05(MoO2)0.25,10.71294875,501.7203306,0,3,,https://doi.org/10.1016/j.ceramint.2019.03.130,O+E
(SrO)1(Fe2O3)0.35(NbO2)0.05(MoO2)0.25,13.29912301,550.1104124,0,3,,https://doi.org/10.1016/j.ceramint.2019.03.130,O+E
(SrO)1(Fe2O3)0.35(NbO2)0.05(MoO2)0.25,15.88529727,598.5004942,0,3,,https://doi.org/10.1016/j.ceramint.2019.03.130,O+E
(SrO)1(Fe2O3)0.35(NbO2)0.05(MoO2)0.25,18.87084902,649.0693811,0,3,,https://doi.org/10.1016/j.ceramint.2019.03.130,O+E
(SrO)1(Fe2O3)0.35(NbO2)0.05(MoO2)0.25,20.65700646,697.5183495,0,3,,https://doi.org/10.1016/j.ceramint.2019.03.130,O+E
(SrO)1(Fe2O3)0.35(NbO2)0.05(MoO2)0.25,23.442554,748.101958,0,3,,https://doi.org/10.1016/j.ceramint.2019.03.130,O+E
(SrO)1(Fe2O3)0.35(NbO2)0.05(MoO2)0.25,25.22808051,798.7591747,0,3,,https://doi.org/10.1016/j.ceramint.2019.03.130,O+E
(La2O3)0.45(SrO)0.1(Ga2O3)0.235(Mn2O3)0.215,4.612831719,700.4513274,20,0,,10.1149/1.2167929,O+E
(La2O3)0.45(SrO)0.1(Ga2O3)0.235(Mn2O3)0.215,3.973656146,651.3697479,20,0,,10.1149/1.2167929,O+E
(La2O3)0.45(SrO)0.1(Ga2O3)0.235(Mn2O3)0.215,3.688090925,600.5491753,20,0,,10.1149/1.2167929,O+E
(La2O3)0.45(SrO)0.1(Ga2O3)0.235(Mn2O3)0.215,3.423047735,549.3116734,20,0,,10.1149/1.2167929,O+E
(La2O3)0.45(SrO)0.1(Ga2O3)0.235(Mn2O3)0.215,2.948734205,499.972973,20,0,,10.1149/1.2167929,O+E
(La2O3)0.45(SrO)0.1(Ga2O3)0.235(Mn2O3)0.215,2.357597355,448.493441,20,0,,10.1149/1.2167929,O+E
(BaO)0.8(SrO)0.2(CeO2)0.8(ZrO2)0.2,0.007033603,649.7348527,20,0,1,https://doi.org/10.1016/j.ceramint.2017.07.192,H
(BaO)0.8(SrO)0.2(CeO2)0.8(ZrO2)0.2,0.006692958,599.9184926,20,0,1,https://doi.org/10.1016/j.ceramint.2017.07.192,H
(BaO)0.8(SrO)0.2(CeO2)0.8(ZrO2)0.2,0.006423903,549.4607762,20,0,1,https://doi.org/10.1016/j.ceramint.2017.07.192,H
(BaO)0.8(SrO)0.2(CeO2)0.8(ZrO2)0.2,0.006185359,499.4523034,20,0,1,https://doi.org/10.1016/j.ceramint.2017.07.192,H
(BaO)0.8(SrO)0.2(CeO2)0.8(ZrO2)0.2,0.006031057,449.9965157,20,0,1,https://doi.org/10.1016/j.ceramint.2017.07.192,H
(SrO)0.6(La2O3)0.1(TiO2)0.8(NbO2)0.2,4.838839965,930,1.69319E-18,0,,https://doi.org/10.1039/A702865B,E
(SrO)0.6(La2O3)0.1(TiO2)0.8(NbO2)0.2,4.559510812,930,1.58933E-17,0,,https://doi.org/10.1039/A702865B,E
(SrO)0.6(La2O3)0.1(TiO2)0.8(NbO2)0.2,4.556292999,930,4.87185E-17,0,,https://doi.org/10.1039/A702865B,E
(SrO)0.6(La2O3)0.1(TiO2)0.8(NbO2)0.2,4.297317507,930,1.02698E-16,0,,https://doi.org/10.1039/A702865B,E
(SrO)0.6(La2O3)0.1(TiO2)0.8(NbO2)0.2,4.419707558,930,4.57539E-16,0,,https://doi.org/10.1039/A702865B,E
(SrO)0.6(La2O3)0.1(TiO2)0.8(NbO2)0.2,4.288562,930,2.61186E-15,0,,https://doi.org/10.1039/A702865B,E
(SrO)0.6(La2O3)0.1(TiO2)0.8(NbO2)0.2,4.163593512,930,6.23874E-15,0,,https://doi.org/10.1039/A702865B,E
(SrO)0.6(La2O3)0.1(TiO2)0.8(NbO2)0.2,3.813405192,930,2.16247E-14,0,,https://doi.org/10.1039/A702865B,E
(SrO)0.6(La2O3)0.1(TiO2)0.8(NbO2)0.2,3.492396278,930,8.48899E-14,0,,https://doi.org/10.1039/A702865B,E
(SrO)0.6(La2O3)0.1(TiO2)0.8(NbO2)0.2,3.019219018,930,1.78666E-13,0,,https://doi.org/10.1039/A702865B,E
(SrO)0.6(La2O3)0.1(TiO2)0.8(NbO2)0.2,2.930089675,930,7.95162E-13,0,,https://doi.org/10.1039/A702865B,E
(SrO)0.6(La2O3)0.1(TiO2)0.8(NbO2)0.2,2.761812381,930,4.5368E-12,0,,https://doi.org/10.1039/A702865B,E
(SrO)0.6(La2O3)0.1(TiO2)0.8(NbO2)0.2,2.317499784,930,3.31315E-11,0,,https://doi.org/10.1039/A702865B,E
(SrO)0.6(La2O3)0.1(TiO2)0.8(NbO2)0.2,2.121416105,930,2.74454E-10,0,,https://doi.org/10.1039/A702865B,E
(SrO)0.6(La2O3)0.1(TiO2)0.8(NbO2)0.2,2.059759711,930,5.78845E-10,0,,https://doi.org/10.1039/A702865B,E
(SrO)0.6(La2O3)0.1(TiO2)0.8(NbO2)0.2,1.440920545,930,0.000946199,0,,https://doi.org/10.1039/A702865B,E
(SrO)0.6(La2O3)0.1(TiO2)0.8(NbO2)0.2,1.318900782,930,0.008876937,0,,https://doi.org/10.1039/A702865B,E
(SrO)0.6(La2O3)0.1(TiO2)0.8(NbO2)0.2,1.107327605,930,0.027125728,0,,https://doi.org/10.1039/A702865B,E
(SrO)0.6(La2O3)0.1(TiO2)0.8(NbO2)0.2,1.014591206,930,0.050462326,0,,https://doi.org/10.1039/A702865B,E
(SrO)0.6(La2O3)0.1(TiO2)0.8(NbO2)0.2,0.804047241,930,0.093630543,0,,https://doi.org/10.1039/A702865B,E
(SrO)0.6(La2O3)0.1(TiO2)0.8(NbO2)0.2,0.583876603,930,0.28536469,0,,https://doi.org/10.1039/A702865B,E
(SrO)0.6(La2O3)0.1(TiO2)0.8(NbO2)0.2,0.336061829,930,1.25813234,0,,https://doi.org/10.1039/A702865B,E
(SrO)0.6(La2O3)0.1(TiO2)0.8(NbO2)0.2,0.258664379,930,2.992653048,0,,https://doi.org/10.1039/A702865B,E
(SrO)0.6(La2O3)0.1(TiO2)0.8(NbO2)0.2,0.193427091,930,5.546926589,0,,https://doi.org/10.1039/A702865B,E
(SrO)0.6(La2O3)0.1(TiO2)0.8(NbO2)0.2,0.132612811,930,7.066539646,0,,https://doi.org/10.1039/A702865B,E
(SrO)0.6(La2O3)0.1(TiO2)0.8(NbO2)0.2,0.093596274,930,9.007168696,0,,https://doi.org/10.1039/A702865B,E
(SrO)0.6(La2O3)0.1(TiO2)0.8(NbO2)0.2,0.049413837,930,12.93457254,0,,https://doi.org/10.1039/A702865B,E
(SrO)0.6(La2O3)0.1(TiO2)0.8(NbO2)0.2,0.020682328,930,18.49689975,0,,https://doi.org/10.1039/A702865B,E