Composition,Conductivity (S/cm),Temperature (degC),PO2 (%),PH2O (%),Grainsize,Ref,Carrier Type
(SrO)0.8(TiO2)0.6(NbO2)0.4,1.83746721,930,0.574560942,0,,https://www.google.com/url?sa=t&rct=j&q=&esrc=s&source=web&cd=&cad=rja&uact=8&ved=2ahUKEwjPtYG3l6XqAhWRbs0KHX4FBqcQFjAAegQIBRAB&url=https%3A%2F%2Flink.springer.com%2Fcontent%2Fpdf%2F10.1007%252FBF02376024.pdf&usg=AOvVaw37VxFvqtPrs7FrpPLfph1-,E
(SrO)0.8(TiO2)0.6(NbO2)0.4,1.648209633,930,4.701096544,0,,https://www.google.com/url?sa=t&rct=j&q=&esrc=s&source=web&cd=&cad=rja&uact=8&ved=2ahUKEwjPtYG3l6XqAhWRbs0KHX4FBqcQFjAAegQIBRAB&url=https%3A%2F%2Flink.springer.com%2Fcontent%2Fpdf%2F10.1007%252FBF02376024.pdf&usg=AOvVaw37VxFvqtPrs7FrpPLfph1-,E
(SrO)0.8(TiO2)0.6(NbO2)0.4,1.47942367,930,21.68201223,0,,https://www.google.com/url?sa=t&rct=j&q=&esrc=s&source=web&cd=&cad=rja&uact=8&ved=2ahUKEwjPtYG3l6XqAhWRbs0KHX4FBqcQFjAAegQIBRAB&url=https%3A%2F%2Flink.springer.com%2Fcontent%2Fpdf%2F10.1007%252FBF02376024.pdf&usg=AOvVaw37VxFvqtPrs7FrpPLfph1-,E
(SrO)1(WO2)0.2(Fe2O3)0.4,22.79116466,196.4497041,20,0,,https://doi.org/10.1016/j.ceramint.2019.01.019,O+E
(SrO)1(WO2)0.2(Fe2O3)0.4,26.02409639,247.9289941,20,0,,https://doi.org/10.1016/j.ceramint.2019.01.019,O+E
(SrO)1(WO2)0.2(Fe2O3)0.4,30.3815261,297.6331361,20,0,,https://doi.org/10.1016/j.ceramint.2019.01.019,O+E
(SrO)1(WO2)0.2(Fe2O3)0.4,35.16064257,347.3372781,20,0,,https://doi.org/10.1016/j.ceramint.2019.01.019,O+E
(SrO)1(WO2)0.2(Fe2O3)0.4,39.37751004,398.816568,20,0,,https://doi.org/10.1016/j.ceramint.2019.01.019,O+E
(SrO)1(WO2)0.2(Fe2O3)0.4,40.78313253,450.295858,20,0,,https://doi.org/10.1016/j.ceramint.2019.01.019,E
(SrO)1(WO2)0.2(Fe2O3)0.4,39.79919679,498.2248521,20,0,,https://doi.org/10.1016/j.ceramint.2019.01.019,E
(SrO)1(WO2)0.2(Fe2O3)0.4,38.25301205,549.704142,20,0,,https://doi.org/10.1016/j.ceramint.2019.01.019,E
(SrO)1(WO2)0.2(Fe2O3)0.4,36.00401606,601.183432,20,0,,https://doi.org/10.1016/j.ceramint.2019.01.019,E
(SrO)1(WO2)0.2(Fe2O3)0.4,33.61445783,649.112426,20,0,,https://doi.org/10.1016/j.ceramint.2019.01.019,E
(SrO)1(WO2)0.2(Fe2O3)0.4,31.5060241,698.816568,20,0,,https://doi.org/10.1016/j.ceramint.2019.01.019,E
(SrO)1(WO2)0.2(Fe2O3)0.4,28.69477912,752.0710059,20,0,,https://doi.org/10.1016/j.ceramint.2019.01.019,E
(SrO)1(WO2)0.2(Fe2O3)0.4,26.58634538,798.2248521,20,0,,https://doi.org/10.1016/j.ceramint.2019.01.019,E
(SrO)1(NbO2)0.2(Fe2O3)0.4,20.68273092,198.2248521,20,0,,https://doi.org/10.1016/j.ceramint.2019.01.019,O+E
(SrO)1(NbO2)0.2(Fe2O3)0.4,24.3373494,249.704142,20,0,,https://doi.org/10.1016/j.ceramint.2019.01.019,O+E
(SrO)1(NbO2)0.2(Fe2O3)0.4,29.11646586,301.183432,20,0,,https://doi.org/10.1016/j.ceramint.2019.01.019,O+E
(SrO)1(NbO2)0.2(Fe2O3)0.4,33.75502008,347.3372781,20,0,,https://doi.org/10.1016/j.ceramint.2019.01.019,O+E
(SrO)1(NbO2)0.2(Fe2O3)0.4,37.8313253,398.816568,20,0,,https://doi.org/10.1016/j.ceramint.2019.01.019,O+E
(SrO)1(NbO2)0.2(Fe2O3)0.4,39.37751004,448.5207101,20,0,,https://doi.org/10.1016/j.ceramint.2019.01.019,E
(SrO)1(NbO2)0.2(Fe2O3)0.4,38.25301205,500,20,0,,https://doi.org/10.1016/j.ceramint.2019.01.019,E
(SrO)1(NbO2)0.2(Fe2O3)0.4,36.70682731,549.704142,20,0,,https://doi.org/10.1016/j.ceramint.2019.01.019,E
(SrO)1(NbO2)0.2(Fe2O3)0.4,34.59839357,599.408284,20,0,,https://doi.org/10.1016/j.ceramint.2019.01.019,E
(SrO)1(NbO2)0.2(Fe2O3)0.4,32.20883534,647.3372781,20,0,,https://doi.org/10.1016/j.ceramint.2019.01.019,E
(SrO)1(NbO2)0.2(Fe2O3)0.4,30.24096386,698.816568,20,0,,https://doi.org/10.1016/j.ceramint.2019.01.019,E
(SrO)1(NbO2)0.2(Fe2O3)0.4,27.57028112,748.5207101,20,0,,https://doi.org/10.1016/j.ceramint.2019.01.019,E
(SrO)1(NbO2)0.2(Fe2O3)0.4,25.04016064,798.2248521,20,0,,https://doi.org/10.1016/j.ceramint.2019.01.019,E
(La2O3)0.5(NiO)0.67(NbO2)0.33,0.004092512,800,3.74292E-13,0,,https://doi.org/10.1016/S0167-2738(01)00870-0,E
(La2O3)0.5(NiO)0.67(NbO2)0.33,0.002966744,800,3.112E-14,0,,https://doi.org/10.1016/S0167-2738(01)00870-0,E
(La2O3)0.5(NiO)0.67(NbO2)0.33,0.001974968,800,2.97769E-15,0,,https://doi.org/10.1016/S0167-2738(01)00870-0,E
(La2O3)0.5(NiO)0.67(NbO2)0.33,1.20E-02,25,21,0,,https://doi.org/10.1016/S0167-2738(01)00870-0,E
(La2O3)0.5(NiO)0.67(NbO2)0.33,9.50E-02,800,21,0,,https://doi.org/10.1016/S0167-2738(01)00870-0,E
(La2O3)0.5(NiO)0.67(NbO2)0.33,2.10E-03,800,0,0,,https://doi.org/10.1016/S0167-2738(01)00870-0,E
(SrO)1(NbO2)0.4(Mn2O3)0.3,0.188581762,950,2.6165E-15,0,,https://doi.org/10.1016/j.ssi.2013.01.005,E
(SrO)1(NbO2)0.4(Mn2O3)0.3,0.930250581,950,1.06003E-14,0,,https://doi.org/10.1016/j.ssi.2013.01.005,E
(SrO)1(NbO2)0.4(Mn2O3)0.3,1.85559287,950,4.29449E-14,0,,https://doi.org/10.1016/j.ssi.2013.01.005,E
(SrO)1(NbO2)0.4(Mn2O3)0.3,2.594936709,950,1.09138E-13,0,,https://doi.org/10.1016/j.ssi.2013.01.005,E
(SrO)1(NbO2)0.4(Mn2O3)0.3,3.338930509,950,7.04857E-13,0,,https://doi.org/10.1016/j.ssi.2013.01.005,E
(SrO)1(NbO2)0.4(Mn2O3)0.3,4.447946267,950,2.85559E-12,0,,https://doi.org/10.1016/j.ssi.2013.01.005,E
(SrO)1(NbO2)0.4(Mn2O3)0.3,6.475329372,950,1.15689E-11,0,,https://doi.org/10.1016/j.ssi.2013.01.005,E
(SrO)1(NbO2)0.4(Mn2O3)0.3,11.9925084,950,4.6869E-11,0,,https://doi.org/10.1016/j.ssi.2013.01.005,E
(SrO)1(NbO2)0.4(Mn2O3)0.3,12.7365022,950,3.027E-10,0,,https://doi.org/10.1016/j.ssi.2013.01.005,E
(SrO)1(NbO2)0.4(Mn2O3)0.3,12.93412555,950,4.96824E-09,0,,https://doi.org/10.1016/j.ssi.2013.01.005,E
(SrO)1(NbO2)0.4(Mn2O3)0.3,13.13407388,950,1.29994E-07,0,,https://doi.org/10.1016/j.ssi.2013.01.005,E
(SrO)1(NbO2)0.4(Mn2O3)0.3,13.15034875,950,3.4013E-06,0,,https://doi.org/10.1016/j.ssi.2013.01.005,E
(SrO)1(NbO2)0.4(Mn2O3)0.3,13.16197365,950,3.5019E-05,0,,https://doi.org/10.1016/j.ssi.2013.01.005,E
(SrO)1(NbO2)0.4(Mn2O3)0.3,13.55489538,950,0.005917686,0,,https://doi.org/10.1016/j.ssi.2013.01.005,E
(SrO)1(NbO2)0.4(Mn2O3)0.3,13.56884526,950,0.097127402,0,,https://doi.org/10.1016/j.ssi.2013.01.005,E
(SrO)1(NbO2)0.4(Mn2O3)0.3,13.59209507,950,10.29575567,0,,https://doi.org/10.1016/j.ssi.2013.01.005,E
(BaO)1(In2O3)0.35(SnO2)0.3,0.029261278,797.2875399,20,0,,https://doi.org/10.1016/j.jssc.2018.03.004,H
(BaO)1(In2O3)0.35(SnO2)0.3,0.01946868,748.3414634,20,0,,https://doi.org/10.1016/j.jssc.2018.03.004,H
(BaO)1(In2O3)0.35(SnO2)0.3,0.012437523,700.8372093,20,0,,https://doi.org/10.1016/j.jssc.2018.03.004,H
(BaO)1(In2O3)0.35(SnO2)0.3,0.007652033,652.4143646,20,0,,https://doi.org/10.1016/j.jssc.2018.03.004,H
(BaO)1(In2O3)0.35(SnO2)0.3,0.004558628,599.3958333,20,0,,https://doi.org/10.1016/j.jssc.2018.03.004,H
(BaO)1(In2O3)0.35(SnO2)0.3,0.002714644,550.0958231,20,0,,https://doi.org/10.1016/j.jssc.2018.03.004,H
(BaO)1(In2O3)0.35(SnO2)0.3,0.001624668,500.6720554,20,0,,https://doi.org/10.1016/j.jssc.2018.03.004,H
(BaO)1(In2O3)0.35(SnO2)0.3,0.000900277,450.5421166,20,0,,https://doi.org/10.1016/j.jssc.2018.03.004,H
(BaO)1(In2O3)0.35(SnO2)0.3,0.00046247,399.6907631,20,0,,https://doi.org/10.1016/j.jssc.2018.03.004,H
(BaO)1(In2O3)0.35(SnO2)0.3,0.000219906,349.6765799,20,0,,https://doi.org/10.1016/j.jssc.2018.03.004,H
(SrO)0.875(TiO2)0.75(NbO2)0.25,6.476207492,930,1.10933E-16,0,,https://doi.org/10.1039/A702865B,E
(SrO)0.875(TiO2)0.75(NbO2)0.25,5.937244115,930,8.38478E-16,0,,https://doi.org/10.1039/A702865B,E
(SrO)0.875(TiO2)0.75(NbO2)0.25,6.200872908,930,4.93251E-15,0,,https://doi.org/10.1039/A702865B,E
(SrO)0.875(TiO2)0.75(NbO2)0.25,5.211720683,930,5.44054E-14,0,,https://doi.org/10.1039/A702865B,E
(SrO)0.875(TiO2)0.75(NbO2)0.25,5.211720683,930,2.81791E-13,0,,https://doi.org/10.1039/A702865B,E
(SrO)0.875(TiO2)0.75(NbO2)0.25,5.211720683,930,4.55742E-12,0,,https://doi.org/10.1039/A702865B,E
(SrO)0.875(TiO2)0.75(NbO2)0.25,5.211720683,930,3.45016E-11,0,,https://doi.org/10.1039/A702865B,E
(SrO)0.875(TiO2)0.75(NbO2)0.25,4.990145486,930,2.96183E-10,0,,https://doi.org/10.1039/A702865B,E
(SrO)0.875(TiO2)0.75(NbO2)0.25,5.211720683,930,1.35284E-09,0,,https://doi.org/10.1039/A702865B,E
(SrO)0.875(TiO2)0.75(NbO2)0.25,4.990145486,930,9.0173E-09,0,,https://doi.org/10.1039/A702865B,E
(SrO)0.875(TiO2)0.75(NbO2)0.25,4.777990512,930,5.29617E-08,0,,https://doi.org/10.1039/A702865B,E
(SrO)0.875(TiO2)0.75(NbO2)0.25,4.574855262,930,2.67247E-06,0,,https://doi.org/10.1039/A702865B,E
(SrO)0.875(TiO2)0.75(NbO2)0.25,4.777990512,930,7.17513E-05,0,,https://doi.org/10.1039/A702865B,E
(SrO)0.875(TiO2)0.75(NbO2)0.25,4.574855262,930,0.001493363,0,,https://doi.org/10.1039/A702865B,E
(SrO)0.875(TiO2)0.75(NbO2)0.25,3.525086768,930,0.008736205,0,,https://doi.org/10.1039/A702865B,E
(SrO)0.875(TiO2)0.75(NbO2)0.25,3.231721758,930,0.023998944,0,,https://doi.org/10.1039/A702865B,E
(SrO)0.875(TiO2)0.75(NbO2)0.25,1.759069582,930,0.1796698,0,,https://doi.org/10.1039/A702865B,E
(SrO)0.875(TiO2)0.75(NbO2)0.25,0.957485213,930,0.714550224,0,,https://doi.org/10.1039/A702865B,E
(SrO)0.875(TiO2)0.75(NbO2)0.25,0.593724411,930,1.513219256,0,,https://doi.org/10.1039/A702865B,E
(SrO)0.875(TiO2)0.75(NbO2)0.25,0.419412635,930,4.137116662,0,,https://doi.org/10.1039/A702865B,E
(SrO)0.875(TiO2)0.75(NbO2)0.25,0.30943258,930,16.5452909,0,,https://doi.org/10.1039/A702865B,E
(SrO)0.875(TiO2)0.75(NbO2)0.25,0.228291933,930,96.71330214,0,,https://doi.org/10.1039/A702865B,E
(SrO)0.875(TiO2)0.75(NbO2)0.25,6.168805612,930,8.10427E-17,0,,https://www.google.com/url?sa=t&rct=j&q=&esrc=s&source=web&cd=&cad=rja&uact=8&ved=2ahUKEwjPtYG3l6XqAhWRbs0KHX4FBqcQFjAAegQIBRAB&url=https%3A%2F%2Flink.springer.com%2Fcontent%2Fpdf%2F10.1007%252FBF02376024.pdf&usg=AOvVaw37VxFvqtPrs7FrpPLfph1-,E
(SrO)0.875(TiO2)0.75(NbO2)0.25,6.16065028,930,2.55058E-16,0,,https://www.google.com/url?sa=t&rct=j&q=&esrc=s&source=web&cd=&cad=rja&uact=8&ved=2ahUKEwjPtYG3l6XqAhWRbs0KHX4FBqcQFjAAegQIBRAB&url=https%3A%2F%2Flink.springer.com%2Fcontent%2Fpdf%2F10.1007%252FBF02376024.pdf&usg=AOvVaw37VxFvqtPrs7FrpPLfph1-,E
(SrO)0.875(TiO2)0.75(NbO2)0.25,5.837976848,930,4.52482E-16,0,,https://www.google.com/url?sa=t&rct=j&q=&esrc=s&source=web&cd=&cad=rja&uact=8&ved=2ahUKEwjPtYG3l6XqAhWRbs0KHX4FBqcQFjAAegQIBRAB&url=https%3A%2F%2Flink.springer.com%2Fcontent%2Fpdf%2F10.1007%252FBF02376024.pdf&usg=AOvVaw37VxFvqtPrs7FrpPLfph1-,E
(SrO)0.875(TiO2)0.75(NbO2)0.25,5.830258881,930,1.42406E-15,0,,https://www.google.com/url?sa=t&rct=j&q=&esrc=s&source=web&cd=&cad=rja&uact=8&ved=2ahUKEwjPtYG3l6XqAhWRbs0KHX4FBqcQFjAAegQIBRAB&url=https%3A%2F%2Flink.springer.com%2Fcontent%2Fpdf%2F10.1007%252FBF02376024.pdf&usg=AOvVaw37VxFvqtPrs7FrpPLfph1-,E
(SrO)0.875(TiO2)0.75(NbO2)0.25,5.822551117,930,4.4818E-15,0,,https://www.google.com/url?sa=t&rct=j&q=&esrc=s&source=web&cd=&cad=rja&uact=8&ved=2ahUKEwjPtYG3l6XqAhWRbs0KHX4FBqcQFjAAegQIBRAB&url=https%3A%2F%2Flink.springer.com%2Fcontent%2Fpdf%2F10.1007%252FBF02376024.pdf&usg=AOvVaw37VxFvqtPrs7FrpPLfph1-,E
(SrO)0.875(TiO2)0.75(NbO2)0.25,5.512722136,930,1.70752E-14,0,,https://www.google.com/url?sa=t&rct=j&q=&esrc=s&source=web&cd=&cad=rja&uact=8&ved=2ahUKEwjPtYG3l6XqAhWRbs0KHX4FBqcQFjAAegQIBRAB&url=https%3A%2F%2Flink.springer.com%2Fcontent%2Fpdf%2F10.1007%252FBF02376024.pdf&usg=AOvVaw37VxFvqtPrs7FrpPLfph1-,E
(SrO)0.875(TiO2)0.75(NbO2)0.25,5.507862417,930,3.66704E-14,0,,https://www.google.com/url?sa=t&rct=j&q=&esrc=s&source=web&cd=&cad=rja&uact=8&ved=2ahUKEwjPtYG3l6XqAhWRbs0KHX4FBqcQFjAAegQIBRAB&url=https%3A%2F%2Flink.springer.com%2Fcontent%2Fpdf%2F10.1007%252FBF02376024.pdf&usg=AOvVaw37VxFvqtPrs7FrpPLfph1-,E
(SrO)0.875(TiO2)0.75(NbO2)0.25,5.217078673,930,9.53352E-14,0,,https://www.google.com/url?sa=t&rct=j&q=&esrc=s&source=web&cd=&cad=rja&uact=8&ved=2ahUKEwjPtYG3l6XqAhWRbs0KHX4FBqcQFjAAegQIBRAB&url=https%3A%2F%2Flink.springer.com%2Fcontent%2Fpdf%2F10.1007%252FBF02376024.pdf&usg=AOvVaw37VxFvqtPrs7FrpPLfph1-,E
(SrO)0.875(TiO2)0.75(NbO2)0.25,5.495731854,930,2.47851E-13,0,,https://www.google.com/url?sa=t&rct=j&q=&esrc=s&source=web&cd=&cad=rja&uact=8&ved=2ahUKEwjPtYG3l6XqAhWRbs0KHX4FBqcQFjAAegQIBRAB&url=https%3A%2F%2Flink.springer.com%2Fcontent%2Fpdf%2F10.1007%252FBF02376024.pdf&usg=AOvVaw37VxFvqtPrs7FrpPLfph1-,E
(SrO)0.875(TiO2)0.75(NbO2)0.25,5.478793937,930,3.59763E-12,0,,https://www.google.com/url?sa=t&rct=j&q=&esrc=s&source=web&cd=&cad=rja&uact=8&ved=2ahUKEwjPtYG3l6XqAhWRbs0KHX4FBqcQFjAAegQIBRAB&url=https%3A%2F%2Flink.springer.com%2Fcontent%2Fpdf%2F10.1007%252FBF02376024.pdf&usg=AOvVaw37VxFvqtPrs7FrpPLfph1-,E
(SrO)0.875(TiO2)0.75(NbO2)0.25,5.19068918,930,7.72622E-12,0,,https://www.google.com/url?sa=t&rct=j&q=&esrc=s&source=web&cd=&cad=rja&uact=8&ved=2ahUKEwjPtYG3l6XqAhWRbs0KHX4FBqcQFjAAegQIBRAB&url=https%3A%2F%2Flink.springer.com%2Fcontent%2Fpdf%2F10.1007%252FBF02376024.pdf&usg=AOvVaw37VxFvqtPrs7FrpPLfph1-,E
(SrO)0.875(TiO2)0.75(NbO2)0.25,5.179257162,930,5.22207E-11,0,,https://www.google.com/url?sa=t&rct=j&q=&esrc=s&source=web&cd=&cad=rja&uact=8&ved=2ahUKEwjPtYG3l6XqAhWRbs0KHX4FBqcQFjAAegQIBRAB&url=https%3A%2F%2Flink.springer.com%2Fcontent%2Fpdf%2F10.1007%252FBF02376024.pdf&usg=AOvVaw37VxFvqtPrs7FrpPLfph1-,E
(SrO)0.875(TiO2)0.75(NbO2)0.25,4.900416613,930,3.52954E-10,0,,https://www.google.com/url?sa=t&rct=j&q=&esrc=s&source=web&cd=&cad=rja&uact=8&ved=2ahUKEwjPtYG3l6XqAhWRbs0KHX4FBqcQFjAAegQIBRAB&url=https%3A%2F%2Flink.springer.com%2Fcontent%2Fpdf%2F10.1007%252FBF02376024.pdf&usg=AOvVaw37VxFvqtPrs7FrpPLfph1-,E
(SrO)0.875(TiO2)0.75(NbO2)0.25,4.895017279,930,9.17605E-10,0,,https://www.google.com/url?sa=t&rct=j&q=&esrc=s&source=web&cd=&cad=rja&uact=8&ved=2ahUKEwjPtYG3l6XqAhWRbs0KHX4FBqcQFjAAegQIBRAB&url=https%3A%2F%2Flink.springer.com%2Fcontent%2Fpdf%2F10.1007%252FBF02376024.pdf&usg=AOvVaw37VxFvqtPrs7FrpPLfph1-,E
(SrO)0.875(TiO2)0.75(NbO2)0.25,4.637610671,930,1.97063E-09,0,,https://www.google.com/url?sa=t&rct=j&q=&esrc=s&source=web&cd=&cad=rja&uact=8&ved=2ahUKEwjPtYG3l6XqAhWRbs0KHX4FBqcQFjAAegQIBRAB&url=https%3A%2F%2Flink.springer.com%2Fcontent%2Fpdf%2F10.1007%252FBF02376024.pdf&usg=AOvVaw37VxFvqtPrs7FrpPLfph1-,E
(SrO)0.875(TiO2)0.75(NbO2)0.25,4.630458567,930,7.5079E-09,0,,https://www.google.com/url?sa=t&rct=j&q=&esrc=s&source=web&cd=&cad=rja&uact=8&ved=2ahUKEwjPtYG3l6XqAhWRbs0KHX4FBqcQFjAAegQIBRAB&url=https%3A%2F%2Flink.springer.com%2Fcontent%2Fpdf%2F10.1007%252FBF02376024.pdf&usg=AOvVaw37VxFvqtPrs7FrpPLfph1-,E
(SrO)0.875(TiO2)0.75(NbO2)0.25,4.619241826,930,6.14302E-08,0,,https://www.google.com/url?sa=t&rct=j&q=&esrc=s&source=web&cd=&cad=rja&uact=8&ved=2ahUKEwjPtYG3l6XqAhWRbs0KHX4FBqcQFjAAegQIBRAB&url=https%3A%2F%2Flink.springer.com%2Fcontent%2Fpdf%2F10.1007%252FBF02376024.pdf&usg=AOvVaw37VxFvqtPrs7FrpPLfph1-,E
(SrO)0.875(TiO2)0.75(NbO2)0.25,4.598917318,930,2.80629E-06,0,,https://www.google.com/url?sa=t&rct=j&q=&esrc=s&source=web&cd=&cad=rja&uact=8&ved=2ahUKEwjPtYG3l6XqAhWRbs0KHX4FBqcQFjAAegQIBRAB&url=https%3A%2F%2Flink.springer.com%2Fcontent%2Fpdf%2F10.1007%252FBF02376024.pdf&usg=AOvVaw37VxFvqtPrs7FrpPLfph1-,E
(SrO)0.875(TiO2)0.75(NbO2)0.25,4.581711814,930,7.22639E-05,0,,https://www.google.com/url?sa=t&rct=j&q=&esrc=s&source=web&cd=&cad=rja&uact=8&ved=2ahUKEwjPtYG3l6XqAhWRbs0KHX4FBqcQFjAAegQIBRAB&url=https%3A%2F%2Flink.springer.com%2Fcontent%2Fpdf%2F10.1007%252FBF02376024.pdf&usg=AOvVaw37VxFvqtPrs7FrpPLfph1-,E
(SrO)0.875(TiO2)0.75(NbO2)0.25,4.331220338,930,0.001048931,0,,https://www.google.com/url?sa=t&rct=j&q=&esrc=s&source=web&cd=&cad=rja&uact=8&ved=2ahUKEwjPtYG3l6XqAhWRbs0KHX4FBqcQFjAAegQIBRAB&url=https%3A%2F%2Flink.springer.com%2Fcontent%2Fpdf%2F10.1007%252FBF02376024.pdf&usg=AOvVaw37VxFvqtPrs7FrpPLfph1-,E
(SrO)0.875(TiO2)0.75(NbO2)0.25,3.313356099,930,0.007089611,0,,https://www.google.com/url?sa=t&rct=j&q=&esrc=s&source=web&cd=&cad=rja&uact=8&ved=2ahUKEwjPtYG3l6XqAhWRbs0KHX4FBqcQFjAAegQIBRAB&url=https%3A%2F%2Flink.springer.com%2Fcontent%2Fpdf%2F10.1007%252FBF02376024.pdf&usg=AOvVaw37VxFvqtPrs7FrpPLfph1-,E
(SrO)0.875(TiO2)0.75(NbO2)0.25,2.974705548,930,0.027010665,0,,https://www.google.com/url?sa=t&rct=j&q=&esrc=s&source=web&cd=&cad=rja&uact=8&ved=2ahUKEwjPtYG3l6XqAhWRbs0KHX4FBqcQFjAAegQIBRAB&url=https%3A%2F%2Flink.springer.com%2Fcontent%2Fpdf%2F10.1007%252FBF02376024.pdf&usg=AOvVaw37VxFvqtPrs7FrpPLfph1-,E
(SrO)0.875(TiO2)0.75(NbO2)0.25,2.160724645,930,0.058007677,0,,https://www.google.com/url?sa=t&rct=j&q=&esrc=s&source=web&cd=&cad=rja&uact=8&ved=2ahUKEwjPtYG3l6XqAhWRbs0KHX4FBqcQFjAAegQIBRAB&url=https%3A%2F%2Flink.springer.com%2Fcontent%2Fpdf%2F10.1007%252FBF02376024.pdf&usg=AOvVaw37VxFvqtPrs7FrpPLfph1-,E
(SrO)0.875(TiO2)0.75(NbO2)0.25,1.655128781,930,0.124576374,0,,https://www.google.com/url?sa=t&rct=j&q=&esrc=s&source=web&cd=&cad=rja&uact=8&ved=2ahUKEwjPtYG3l6XqAhWRbs0KHX4FBqcQFjAAegQIBRAB&url=https%3A%2F%2Flink.springer.com%2Fcontent%2Fpdf%2F10.1007%252FBF02376024.pdf&usg=AOvVaw37VxFvqtPrs7FrpPLfph1-,E
(SrO)0.875(TiO2)0.75(NbO2)0.25,0.921118177,930,0.474622746,0,,https://www.google.com/url?sa=t&rct=j&q=&esrc=s&source=web&cd=&cad=rja&uact=8&ved=2ahUKEwjPtYG3l6XqAhWRbs0KHX4FBqcQFjAAegQIBRAB&url=https%3A%2F%2Flink.springer.com%2Fcontent%2Fpdf%2F10.1007%252FBF02376024.pdf&usg=AOvVaw37VxFvqtPrs7FrpPLfph1-,E
(SrO)0.875(TiO2)0.75(NbO2)0.25,0.668921323,930,1.233918021,0,,https://www.google.com/url?sa=t&rct=j&q=&esrc=s&source=web&cd=&cad=rja&uact=8&ved=2ahUKEwjPtYG3l6XqAhWRbs0KHX4FBqcQFjAAegQIBRAB&url=https%3A%2F%2Flink.springer.com%2Fcontent%2Fpdf%2F10.1007%252FBF02376024.pdf&usg=AOvVaw37VxFvqtPrs7FrpPLfph1-,E
(SrO)0.875(TiO2)0.75(NbO2)0.25,0.540480566,930,2.189016135,0,,https://www.google.com/url?sa=t&rct=j&q=&esrc=s&source=web&cd=&cad=rja&uact=8&ved=2ahUKEwjPtYG3l6XqAhWRbs0KHX4FBqcQFjAAegQIBRAB&url=https%3A%2F%2Flink.springer.com%2Fcontent%2Fpdf%2F10.1007%252FBF02376024.pdf&usg=AOvVaw37VxFvqtPrs7FrpPLfph1-,E
(SrO)0.875(TiO2)0.75(NbO2)0.25,0.392500099,930,5.690975579,0,,https://www.google.com/url?sa=t&rct=j&q=&esrc=s&source=web&cd=&cad=rja&uact=8&ved=2ahUKEwjPtYG3l6XqAhWRbs0KHX4FBqcQFjAAegQIBRAB&url=https%3A%2F%2Flink.springer.com%2Fcontent%2Fpdf%2F10.1007%252FBF02376024.pdf&usg=AOvVaw37VxFvqtPrs7FrpPLfph1-,E
(SrO)0.875(TiO2)0.75(NbO2)0.25,0.284910167,930,21.68201223,0,,https://www.google.com/url?sa=t&rct=j&q=&esrc=s&source=web&cd=&cad=rja&uact=8&ved=2ahUKEwjPtYG3l6XqAhWRbs0KHX4FBqcQFjAAegQIBRAB&url=https%3A%2F%2Flink.springer.com%2Fcontent%2Fpdf%2F10.1007%252FBF02376024.pdf&usg=AOvVaw37VxFvqtPrs7FrpPLfph1-,E
(SrO)0.875(TiO2)0.75(NbO2)0.25,0.206766592,930,100,0,,https://www.google.com/url?sa=t&rct=j&q=&esrc=s&source=web&cd=&cad=rja&uact=8&ved=2ahUKEwjPtYG3l6XqAhWRbs0KHX4FBqcQFjAAegQIBRAB&url=https%3A%2F%2Flink.springer.com%2Fcontent%2Fpdf%2F10.1007%252FBF02376024.pdf&usg=AOvVaw37VxFvqtPrs7FrpPLfph1-,E
(La2O3)0.5(NiO)0.75(MoO2)0.25,0.334518392,800,3.02914E-15,0,,https://doi.org/10.1016/S0167-2738(01)00870-0,E
(La2O3)0.5(NiO)0.75(MoO2)0.25,0.248250425,800,5.81005E-16,0,,https://doi.org/10.1016/S0167-2738(01)00870-0,E
(La2O3)0.5(NiO)0.75(MoO2)0.25,0.119803636,800,6.62338E-18,0,,https://doi.org/10.1016/S0167-2738(01)00870-0,E
(La2O3)0.5(NiO)0.75(WO2)0.25,0.091209484,800,3.66674E-13,0,,https://doi.org/10.1016/S0167-2738(01)00870-0,E
(La2O3)0.5(NiO)0.75(WO2)0.25,0.049804662,800,3.17665E-14,0,,https://doi.org/10.1016/S0167-2738(01)00870-0,E
(La2O3)0.5(NiO)0.75(WO2)0.25,0.034746415,800,2.97769E-15,0,,https://doi.org/10.1016/S0167-2738(01)00870-0,E
(La2O3)0.5(NiO)0.75(WO2)0.25,0.023679362,800,5.81005E-16,0,,https://doi.org/10.1016/S0167-2738(01)00870-0,E
(La2O3)0.5(NiO)0.75(WO2)0.25,0.009494017,800,6.62338E-18,0,,https://doi.org/10.1016/S0167-2738(01)00870-0,E
(La2O3)0.5(NiO)0.75(MoO2)0.25,2.70E-01,25,21,0,,https://doi.org/10.1016/S0167-2738(01)00870-0,E
(La2O3)0.5(NiO)0.75(MoO2)0.25,5.98E+00,800,21,0,,https://doi.org/10.1016/S0167-2738(01)00870-0,E
(La2O3)0.5(NiO)0.75(MoO2)0.25,1.20E-02,800,0,0,,https://doi.org/10.1016/S0167-2738(01)00870-0,E
(La2O3)0.5(NiO)0.75(WO2)0.25,5.40E-02,25,21,0,,https://doi.org/10.1016/S0167-2738(01)00870-0,E
(La2O3)0.5(NiO)0.75(WO2)0.25,4.80E-01,800,21,0,,https://doi.org/10.1016/S0167-2738(01)00870-0,E
(La2O3)0.5(NiO)0.75(WO2)0.25,9.40E-03,800,0,0,,https://doi.org/10.1016/S0167-2738(01)00870-0,E
(CaO)1(TiO2)0.5(Al2O3)0.25,0.060550908,1191.616412,2.00E+01,0,,https://doi.org/10.1016/0167-2738(92)90095-7,O
(CaO)1(TiO2)0.5(Al2O3)0.25,0.052652646,1169.095488,2.00E+01,0,,https://doi.org/10.1016/0167-2738(92)90095-7,O