Composition,Conductivity (S/cm),Temperature (degC),PO2 (%),PH2O (%),Grainsize,Ref,Carrier Type
(BaO)1(CeO2)0.4(ZrO2)0.4(Y2O3)0.1,0.004874632,512.4981016,0,1.9,,https://doi.org/10.1016/j.ijhydene.2011.04.106,H
(BaO)1(CeO2)0.4(ZrO2)0.4(Y2O3)0.1,0.008235805,535.1006031,0,1.9,,https://doi.org/10.1016/j.ijhydene.2011.04.106,H
(BaO)1(CeO2)0.4(ZrO2)0.4(Y2O3)0.1,0.013693624,552.3542639,0,1.9,,https://doi.org/10.1016/j.ijhydene.2011.04.106,H
(BaO)1(CeO2)0.4(ZrO2)0.4(Y2O3)0.1,0.019632303,571.6743664,0,1.9,,https://doi.org/10.1016/j.ijhydene.2011.04.106,H
(BaO)1(CeO2)0.4(ZrO2)0.4(Y2O3)0.1,0.027232922,592.2310025,0,1.9,,https://doi.org/10.1016/j.ijhydene.2011.04.106,H
(BaO)1(CeO2)0.4(ZrO2)0.4(Sc2O3)0.1,1.00E-03,600,0,1.9,,https://doi.org/10.1039/B902343G,H
(BaO)1(CeO2)0.4(ZrO2)0.4(Sc2O3)0.1,0.002540238,885.445441,0,3,,https://doi.org/10.1016/j.ssi.2007.02.004,H
(BaO)1(CeO2)0.4(ZrO2)0.4(Sc2O3)0.1,0.002132706,838.9081779,0,3,,https://doi.org/10.1016/j.ssi.2007.02.004,H
(BaO)1(CeO2)0.4(ZrO2)0.4(Sc2O3)0.1,0.001796296,790.8297872,0,3,,https://doi.org/10.1016/j.ssi.2007.02.004,H
(BaO)1(CeO2)0.4(ZrO2)0.4(Sc2O3)0.1,0.001411749,742.0622135,0,3,,https://doi.org/10.1016/j.ssi.2007.02.004,H
(BaO)1(CeO2)0.4(ZrO2)0.4(Sc2O3)0.1,0.00128417,693.3341646,0,3,,https://doi.org/10.1016/j.ssi.2007.02.004,H
(BaO)1(CeO2)0.4(ZrO2)0.4(Sc2O3)0.1,0.001089032,645.2464455,0,3,,https://doi.org/10.1016/j.ssi.2007.02.004,H
(BaO)1(CeO2)0.4(ZrO2)0.4(Sc2O3)0.1,0.001063854,601.717833,0,3,,https://doi.org/10.1016/j.ssi.2007.02.004,H
(BaO)1(CeO2)0.4(ZrO2)0.4(Sc2O3)0.1,0.000911484,549.7176221,0,3,,https://doi.org/10.1016/j.ssi.2007.02.004,H
(BaO)1(CeO2)0.4(ZrO2)0.4(Sc2O3)0.1,0.00072669,500.8392411,0,3,,https://doi.org/10.1016/j.ssi.2007.02.004,H
(BaO)1(CeO2)0.4(ZrO2)0.4(Sc2O3)0.1,0.000542551,450.2851143,0,3,,https://doi.org/10.1016/j.ssi.2007.02.004,H
(BaO)1(CeO2)0.4(ZrO2)0.4(Sc2O3)0.1,0.00032802,399.7430556,0,3,,https://doi.org/10.1016/j.ssi.2007.02.004,H
(Bi2O3)0.35(SrO)0.3(Fe2O3)0.4(Mn2O3)0.1,2.565020906,848.2121212,20,0,,https://doi.org/10.1016/j.ssi.2013.09.056,O+E
(Bi2O3)0.35(SrO)0.3(Fe2O3)0.4(Mn2O3)0.1,2.080567538,796.3641618,20,0,,https://doi.org/10.1016/j.ssi.2013.09.056,O+E
(Bi2O3)0.35(SrO)0.3(Fe2O3)0.4(Mn2O3)0.1,1.687612476,749.0994475,20,0,,https://doi.org/10.1016/j.ssi.2013.09.056,O+E
(Bi2O3)0.35(SrO)0.3(Fe2O3)0.4(Mn2O3)0.1,1.36887451,700.6842105,20,0,,https://doi.org/10.1016/j.ssi.2013.09.056,O+E
(Bi2O3)0.35(SrO)0.3(Fe2O3)0.4(Mn2O3)0.1,1.110336318,647.39801,20,0,,https://doi.org/10.1016/j.ssi.2013.09.056,O+E
(Bi2O3)0.35(SrO)0.3(Fe2O3)0.4(Mn2O3)0.1,0.90062802,599.6415094,20,0,,https://doi.org/10.1016/j.ssi.2013.09.056,O+E
(Bi2O3)0.35(SrO)0.3(Fe2O3)0.4(Mn2O3)0.1,0.693280669,545.5840708,20,0,,https://doi.org/10.1016/j.ssi.2013.09.056,O+E
(Bi2O3)0.35(SrO)0.3(Fe2O3)0.4(Mn2O3)0.1,0.533669923,501.0585774,20,0,,https://doi.org/10.1016/j.ssi.2013.09.056,O+E
(Bi2O3)0.35(SrO)0.3(Fe2O3)0.4(Mn2O3)0.1,0.369983041,452.4901961,20,0,,https://doi.org/10.1016/j.ssi.2013.09.056,O+E
(Bi2O3)0.35(SrO)0.3(Fe2O3)0.4(Mn2O3)0.1,0.243424136,399.7272727,20,0,,https://doi.org/10.1016/j.ssi.2013.09.056,O+E
(Bi2O3)0.35(SrO)0.3(Fe2O3)0.4(Mn2O3)0.1,0.151991108,349.8956229,20,0,,https://doi.org/10.1016/j.ssi.2013.09.056,O+E
(Bi2O3)0.35(SrO)0.3(Fe2O3)0.4(Mn2O3)0.1,0.094901424,299.755418,20,0,,https://doi.org/10.1016/j.ssi.2013.09.056,O+E
(La2O3)0.4(SrO)0.2(Ga2O3)0.4(Mn2O3)0.1,0.088586679,720.7456567,20,0,,10.1149/1.2167929,O+E
(La2O3)0.45(SrO)0.1(Ga2O3)0.4(Cr2O3)0.1,1.4e-2,860,2.00E+01,0,1,10.1.1.983.5883,O+E
(La2O3)0.45(SrO)0.1(Ga2O3)0.4(Cr2O3)0.1,0.02,900,2.00E+01,0,1,10.1.1.983.5883,O+E
(La2O3)0.45(SrO)0.1(Ga2O3)0.4(Cr2O3)0.1,0.04,1000,2.00E+01,0,1,10.1.1.983.5883,O+E
(La2O3)0.45(SrO)0.1(Ga2O3)0.4(Fe2O3)0.1,0.07,860,2.00E+01,0,1,10.1.1.983.5883,O+E
(La2O3)0.45(SrO)0.1(Ga2O3)0.4(Fe2O3)0.1,0.08,900,2.00E+01,0,1,10.1.1.983.5883,O+E
(La2O3)0.45(SrO)0.1(Ga2O3)0.4(Fe2O3)0.1,0.07,1000,2.00E+01,0,1,10.1.1.983.5883,O+E
(BaO)1(ZrO2)0.44(CeO2)0.35(Y2O3)0.1,0.016661706,800,0,1.9,3.67,https://doi.org/10.1016/j.ijhydene.2016.10.120,H
(BaO)1(ZrO2)0.44(CeO2)0.35(Y2O3)0.1,0.014703503,700,0,1.9,3.67,https://doi.org/10.1016/j.ijhydene.2016.10.120,H
(BaO)1(ZrO2)0.44(CeO2)0.35(Y2O3)0.1,0.014703503,600,0,1.9,3.67,https://doi.org/10.1016/j.ijhydene.2016.10.120,H
(BaO)1(ZrO2)0.44(CeO2)0.35(Y2O3)0.1,0.009896352,500,0,1.9,3.67,https://doi.org/10.1016/j.ijhydene.2016.10.120,H
(BaO)1(ZrO2)0.44(CeO2)0.35(Y2O3)0.1,0.003419296,400,0,1.9,3.67,https://doi.org/10.1016/j.ijhydene.2016.10.120,H
(BaO)1(ZrO2)0.44(CeO2)0.35(Y2O3)0.1,0.033140724,800,21,1.9,3.67,https://doi.org/10.1016/j.ijhydene.2016.10.120,H+E
(BaO)1(ZrO2)0.44(CeO2)0.35(Y2O3)0.1,0.021395219,700,21,1.9,3.67,https://doi.org/10.1016/j.ijhydene.2016.10.120,H+E
(BaO)1(ZrO2)0.44(CeO2)0.35(Y2O3)0.1,0.015329231,600,21,1.9,3.67,https://doi.org/10.1016/j.ijhydene.2016.10.120,H+E
(BaO)1(ZrO2)0.44(CeO2)0.35(Y2O3)0.1,0.009692266,500,21,1.9,3.67,https://doi.org/10.1016/j.ijhydene.2016.10.120,H+E
(BaO)1(ZrO2)0.44(CeO2)0.35(Y2O3)0.1,0.002718874,400,21,1.9,3.67,https://doi.org/10.1016/j.ijhydene.2016.10.120,H+E
(SrO)1(ZrO2)0.44(CeO2)0.35(Y2O3)0.1,0.009692266,800,0,1.9,4.67,https://doi.org/10.1016/j.ijhydene.2016.10.120,H
(SrO)1(ZrO2)0.44(CeO2)0.35(Y2O3)0.1,0.006388956,700,0,1.9,4.67,https://doi.org/10.1016/j.ijhydene.2016.10.120,H
(SrO)1(ZrO2)0.44(CeO2)0.35(Y2O3)0.1,0.003716514,600,0,1.9,4.67,https://doi.org/10.1016/j.ijhydene.2016.10.120,H
(SrO)1(ZrO2)0.44(CeO2)0.35(Y2O3)0.1,0.001338742,500,0,1.9,4.67,https://doi.org/10.1016/j.ijhydene.2016.10.120,H
(SrO)1(ZrO2)0.44(CeO2)0.35(Y2O3)0.1,0.000331407,400,0,1.9,4.67,https://doi.org/10.1016/j.ijhydene.2016.10.120,H
(SrO)1(ZrO2)0.44(CeO2)0.35(Y2O3)0.1,0.01075658,800,21,1.9,4.67,https://doi.org/10.1016/j.ijhydene.2016.10.120,H+E
(SrO)1(ZrO2)0.44(CeO2)0.35(Y2O3)0.1,0.006388956,700,21,1.9,4.67,https://doi.org/10.1016/j.ijhydene.2016.10.120,H+E
(SrO)1(ZrO2)0.44(CeO2)0.35(Y2O3)0.1,0.003348782,600,21,1.9,4.67,https://doi.org/10.1016/j.ijhydene.2016.10.120,H+E
(SrO)1(ZrO2)0.44(CeO2)0.35(Y2O3)0.1,0.00120628,500,21,1.9,4.67,https://doi.org/10.1016/j.ijhydene.2016.10.120,H+E
(SrO)1(ZrO2)0.44(CeO2)0.35(Y2O3)0.1,0.000324573,400,21,1.9,4.67,https://doi.org/10.1016/j.ijhydene.2016.10.120,H+E
(BaO)1(CeO2)0.5(ZrO2)0.3(Y2O3)0.1,0.006589176,673.9992206,20,0,,https://doi.org/10.1016/j.jallcom.2012.11.197,H
(BaO)1(CeO2)0.5(ZrO2)0.3(Y2O3)0.1,0.004712242,625.0044346,20,0,,https://doi.org/10.1016/j.jallcom.2012.11.197,H
(BaO)1(CeO2)0.5(ZrO2)0.3(Y2O3)0.1,0.003291949,574.871598,20,0,,https://doi.org/10.1016/j.jallcom.2012.11.197,H
(BaO)1(CeO2)0.5(ZrO2)0.3(Y2O3)0.1,0.002006191,525.816568,20,0,,https://doi.org/10.1016/j.jallcom.2012.11.197,H
(BaO)1(CeO2)0.5(ZrO2)0.3(Y2O3)0.1,0.001100031,475.6136784,20,0,,https://doi.org/10.1016/j.jallcom.2012.11.197,H
(BaO)1(CeO2)0.5(ZrO2)0.3(Y2O3)0.1,0.000422282,425.6774008,20,0,,https://doi.org/10.1016/j.jallcom.2012.11.197,H
(BaO)1(CeO2)0.5(ZrO2)0.3(Y2O3)0.1,0.009354462,673.9992206,20,1.9,,https://doi.org/10.1016/j.jallcom.2012.11.197,H
(BaO)1(CeO2)0.5(ZrO2)0.3(Y2O3)0.1,0.007068921,625.0044346,20,1.9,,https://doi.org/10.1016/j.jallcom.2012.11.197,H
(BaO)1(CeO2)0.5(ZrO2)0.3(Y2O3)0.1,0.005204832,574.871598,20,1.9,,https://doi.org/10.1016/j.jallcom.2012.11.197,H
(BaO)1(CeO2)0.5(ZrO2)0.3(Y2O3)0.1,0.003300696,525.816568,20,1.9,,https://doi.org/10.1016/j.jallcom.2012.11.197,H
(BaO)1(CeO2)0.5(ZrO2)0.3(Y2O3)0.1,0.002235767,475.6136784,20,1.9,,https://doi.org/10.1016/j.jallcom.2012.11.197,H
(BaO)1(CeO2)0.5(ZrO2)0.3(Y2O3)0.1,0.000855144,425.6774008,20,1.9,,https://doi.org/10.1016/j.jallcom.2012.11.197,H
(BaO)1(CeO2)0.5(ZrO2)0.3(Y2O3)0.1,0.004503554,501.650087,20,0,,https://doi.org/10.1016/j.jpowsour.2017.09.021,H
(BaO)1(CeO2)0.5(ZrO2)0.3(Y2O3)0.1,0.003785062,451.1254464,20,0,,https://doi.org/10.1016/j.jpowsour.2017.09.021,H
(BaO)1(CeO2)0.5(ZrO2)0.3(Y2O3)0.1,0.002435821,402.8614675,20,0,,https://doi.org/10.1016/j.jpowsour.2017.09.021,H
(BaO)1(CeO2)0.5(ZrO2)0.3(Y2O3)0.1,0.001569066,352.8224794,20,0,,https://doi.org/10.1016/j.jpowsour.2017.09.021,H
(BaO)1(CeO2)0.5(ZrO2)0.3(Y2O3)0.1,0.000677439,303.0197143,20,0,,https://doi.org/10.1016/j.jpowsour.2017.09.021,H
(BaO)1(CeO2)0.5(ZrO2)0.3(Y2O3)0.1,0.00022417,252.6409034,20,0,,https://doi.org/10.1016/j.jpowsour.2017.09.021,H
(BaO)1(CeO2)0.5(ZrO2)0.3(Y2O3)0.1,5.43913E-05,202.578209,20,0,,https://doi.org/10.1016/j.jpowsour.2017.09.021,H
(BaO)1(CeO2)0.5(ZrO2)0.3(Y2O3)0.1,0.005336699,501.650087,20,1.9,,https://doi.org/10.1016/j.jpowsour.2017.09.021,H
(BaO)1(CeO2)0.5(ZrO2)0.3(Y2O3)0.1,0.003564085,451.1254464,20,1.9,,https://doi.org/10.1016/j.jpowsour.2017.09.021,H
(BaO)1(CeO2)0.5(ZrO2)0.3(Y2O3)0.1,0.002603661,402.8614675,20,1.9,,https://doi.org/10.1016/j.jpowsour.2017.09.021,H
(BaO)1(CeO2)0.5(ZrO2)0.3(Y2O3)0.1,0.001519911,352.8224794,20,1.9,,https://doi.org/10.1016/j.jpowsour.2017.09.021,H
(BaO)1(CeO2)0.5(ZrO2)0.3(Y2O3)0.1,0.000741532,303.0197143,20,1.9,,https://doi.org/10.1016/j.jpowsour.2017.09.021,H
(BaO)1(CeO2)0.5(ZrO2)0.3(Y2O3)0.1,0.000252695,252.6409034,20,1.9,,https://doi.org/10.1016/j.jpowsour.2017.09.021,H
(BaO)1(CeO2)0.5(ZrO2)0.3(Y2O3)0.1,6.01479E-05,202.578209,20,1.9,,https://doi.org/10.1016/j.jpowsour.2017.09.021,H
(BaO)1(CeO2)0.5(ZrO2)0.3(Y2O3)0.1,0.004311371,501.650087,20,0,,https://doi.org/10.1016/j.jpowsour.2017.09.021,H
(BaO)1(CeO2)0.5(ZrO2)0.3(Y2O3)0.1,0.002894266,451.1254464,20,0,,https://doi.org/10.1016/j.jpowsour.2017.09.021,H
(BaO)1(CeO2)0.5(ZrO2)0.3(Y2O3)0.1,0.002030918,402.8614675,20,0,,https://doi.org/10.1016/j.jpowsour.2017.09.021,H
(BaO)1(CeO2)0.5(ZrO2)0.3(Y2O3)0.1,0.001092601,352.8224794,20,0,,https://doi.org/10.1016/j.jpowsour.2017.09.021,H
(BaO)1(CeO2)0.5(ZrO2)0.3(Y2O3)0.1,0.000431137,303.0197143,20,0,,https://doi.org/10.1016/j.jpowsour.2017.09.021,H
(BaO)1(CeO2)0.5(ZrO2)0.3(Y2O3)0.1,0.000170125,252.6409034,20,0,,https://doi.org/10.1016/j.jpowsour.2017.09.021,H
(BaO)1(CeO2)0.5(ZrO2)0.3(Y2O3)0.1,4.12463E-05,202.578209,20,0,,https://doi.org/10.1016/j.jpowsour.2017.09.021,H
(BaO)1(CeO2)0.5(ZrO2)0.3(Y2O3)0.1,0.003909851,501.650087,20,1.9,,https://doi.org/10.1016/j.jpowsour.2017.09.021,H
(BaO)1(CeO2)0.5(ZrO2)0.3(Y2O3)0.1,0.002855224,451.1254464,20,1.9,,https://doi.org/10.1016/j.jpowsour.2017.09.021,H
(BaO)1(CeO2)0.5(ZrO2)0.3(Y2O3)0.1,0.001907003,402.8614675,20,1.9,,https://doi.org/10.1016/j.jpowsour.2017.09.021,H
(BaO)1(CeO2)0.5(ZrO2)0.3(Y2O3)0.1,0.001066335,352.8224794,20,1.9,,https://doi.org/10.1016/j.jpowsour.2017.09.021,H
(BaO)1(CeO2)0.5(ZrO2)0.3(Y2O3)0.1,0.000545032,303.0197143,20,1.9,,https://doi.org/10.1016/j.jpowsour.2017.09.021,H
(BaO)1(CeO2)0.5(ZrO2)0.3(Y2O3)0.1,0.000178685,252.6409034,20,1.9,,https://doi.org/10.1016/j.jpowsour.2017.09.021,H
(BaO)1(CeO2)0.5(ZrO2)0.3(Y2O3)0.1,6.98139E-05,202.578209,20,1.9,,https://doi.org/10.1016/j.jpowsour.2017.09.021,H
(BaO)1(CeO2)0.5(ZrO2)0.3(Dy2O3)0.1,0.00492339,501.650087,20,0,,https://doi.org/10.1016/j.jpowsour.2017.09.021,H
(BaO)1(CeO2)0.5(ZrO2)0.3(Dy2O3)0.1,0.003310924,451.1254464,20,0,,https://doi.org/10.1016/j.jpowsour.2017.09.021,H
(BaO)1(CeO2)0.5(ZrO2)0.3(Dy2O3)0.1,0.00203811,402.8614675,20,0,,https://doi.org/10.1016/j.jpowsour.2017.09.021,H
(BaO)1(CeO2)0.5(ZrO2)0.3(Dy2O3)0.1,0.001148417,352.8224794,20,0,,https://doi.org/10.1016/j.jpowsour.2017.09.021,H
(BaO)1(CeO2)0.5(ZrO2)0.3(Dy2O3)0.1,0.000453608,303.0197143,20,0,,https://doi.org/10.1016/j.jpowsour.2017.09.021,H
(BaO)1(CeO2)0.5(ZrO2)0.3(Dy2O3)0.1,0.000156943,252.6409034,20,0,,https://doi.org/10.1016/j.jpowsour.2017.09.021,H
(BaO)1(CeO2)0.5(ZrO2)0.3(Dy2O3)0.1,4.97462E-05,202.578209,20,0,,https://doi.org/10.1016/j.jpowsour.2017.09.021,H
(BaO)1(CeO2)0.5(ZrO2)0.3(Dy2O3)0.1,0.005837592,501.650087,20,1.9,,https://doi.org/10.1016/j.jpowsour.2017.09.021,H
(BaO)1(CeO2)0.5(ZrO2)0.3(Dy2O3)0.1,0.003898604,451.1254464,20,1.9,,https://doi.org/10.1016/j.jpowsour.2017.09.021,H
(BaO)1(CeO2)0.5(ZrO2)0.3(Dy2O3)0.1,0.002848036,402.8614675,20,1.9,,https://doi.org/10.1016/j.jpowsour.2017.09.021,H
(BaO)1(CeO2)0.5(ZrO2)0.3(Dy2O3)0.1,0.001389495,352.8224794,20,1.9,,https://doi.org/10.1016/j.jpowsour.2017.09.021,H
(BaO)1(CeO2)0.5(ZrO2)0.3(Dy2O3)0.1,0.000619738,303.0197143,20,1.9,,https://doi.org/10.1016/j.jpowsour.2017.09.021,H
(BaO)1(CeO2)0.5(ZrO2)0.3(Dy2O3)0.1,0.00022088,252.6409034,20,1.9,,https://doi.org/10.1016/j.jpowsour.2017.09.021,H
(BaO)1(CeO2)0.5(ZrO2)0.3(Dy2O3)0.1,6.57933E-05,202.578209,20,1.9,,https://doi.org/10.1016/j.jpowsour.2017.09.021,H
(BaO)1(CeO2)0.5(ZrO2)0.3(Dy2O3)0.1,0.004311371,501.650087,20,0,,https://doi.org/10.1016/j.jpowsour.2017.09.021,H
(BaO)1(CeO2)0.5(ZrO2)0.3(Dy2O3)0.1,0.002894266,451.1254464,20,0,,https://doi.org/10.1016/j.jpowsour.2017.09.021,H
(BaO)1(CeO2)0.5(ZrO2)0.3(Dy2O3)0.1,0.002030918,402.8614675,20,0,,https://doi.org/10.1016/j.jpowsour.2017.09.021,H
(BaO)1(CeO2)0.5(ZrO2)0.3(Dy2O3)0.1,0.001193777,352.8224794,20,0,,https://doi.org/10.1016/j.jpowsour.2017.09.021,H
(BaO)1(CeO2)0.5(ZrO2)0.3(Dy2O3)0.1,0.000614415,303.0197143,20,0,,https://doi.org/10.1016/j.jpowsour.2017.09.021,H
(BaO)1(CeO2)0.5(ZrO2)0.3(Dy2O3)0.1,0.000194295,252.6409034,20,0,,https://doi.org/10.1016/j.jpowsour.2017.09.021,H
(BaO)1(CeO2)0.5(ZrO2)0.3(Dy2O3)0.1,5.62341E-05,202.578209,20,0,,https://doi.org/10.1016/j.jpowsour.2017.09.021,H
(BaO)1(CeO2)0.5(ZrO2)0.3(Dy2O3)0.1,0.005099703,501.650087,20,1.9,,https://doi.org/10.1016/j.jpowsour.2017.09.021,H
(BaO)1(CeO2)0.5(ZrO2)0.3(Dy2O3)0.1,0.003260863,451.1254464,20,1.9,,https://doi.org/10.1016/j.jpowsour.2017.09.021,H
(BaO)1(CeO2)0.5(ZrO2)0.3(Dy2O3)0.1,0.002276858,402.8614675,20,1.9,,https://doi.org/10.1016/j.jpowsour.2017.09.021,H
(BaO)1(CeO2)0.5(ZrO2)0.3(Dy2O3)0.1,0.001217829,352.8224794,20,1.9,,https://doi.org/10.1016/j.jpowsour.2017.09.021,H
(BaO)1(CeO2)0.5(ZrO2)0.3(Dy2O3)0.1,0.000650646,303.0197143,20,1.9,,https://doi.org/10.1016/j.jpowsour.2017.09.021,H
(BaO)1(CeO2)0.5(ZrO2)0.3(Dy2O3)0.1,0.000317708,252.6409034,20,1.9,,https://doi.org/10.1016/j.jpowsour.2017.09.021,H
(BaO)1(CeO2)0.5(ZrO2)0.3(Dy2O3)0.1,9.9492E-05,202.578209,20,1.9,,https://doi.org/10.1016/j.jpowsour.2017.09.021,H
(BaO)1(CeO2)0.5(ZrO2)0.3(Sm2O3)0.1,0.002883702,501.650087,20,0,,https://doi.org/10.1016/j.jpowsour.2017.09.021,H
(BaO)1(CeO2)0.5(ZrO2)0.3(Sm2O3)0.1,0.002216967,451.1254464,20,0,,https://doi.org/10.1016/j.jpowsour.2017.09.021,H
(BaO)1(CeO2)0.5(ZrO2)0.3(Sm2O3)0.1,0.001305037,402.8614675,20,0,,https://doi.org/10.1016/j.jpowsour.2017.09.021,H
(BaO)1(CeO2)0.5(ZrO2)0.3(Sm2O3)0.1,0.000919025,352.8224794,20,0,,https://doi.org/10.1016/j.jpowsour.2017.09.021,H
(BaO)1(CeO2)0.5(ZrO2)0.3(Sm2O3)0.1,0.000363001,303.0197143,20,0,,https://doi.org/10.1016/j.jpowsour.2017.09.021,H
(BaO)1(CeO2)0.5(ZrO2)0.3(Sm2O3)0.1,7.69149E-05,252.6409034,20,0,,https://doi.org/10.1016/j.jpowsour.2017.09.021,H
(BaO)1(CeO2)0.5(ZrO2)0.3(Sm2O3)0.1,2.04076E-05,202.578209,20,0,,https://doi.org/10.1016/j.jpowsour.2017.09.021,H
(BaO)1(CeO2)0.5(ZrO2)0.3(Sm2O3)0.1,0.003727594,501.650087,20,1.9,,https://doi.org/10.1016/j.jpowsour.2017.09.021,H
(BaO)1(CeO2)0.5(ZrO2)0.3(Sm2O3)0.1,0.002978695,451.1254464,20,1.9,,https://doi.org/10.1016/j.jpowsour.2017.09.021,H
(BaO)1(CeO2)0.5(ZrO2)0.3(Sm2O3)0.1,0.00158964,402.8614675,20,1.9,,https://doi.org/10.1016/j.jpowsour.2017.09.021,H
(BaO)1(CeO2)0.5(ZrO2)0.3(Sm2O3)0.1,0.001110336,352.8224794,20,1.9,,https://doi.org/10.1016/j.jpowsour.2017.09.021,H
(BaO)1(CeO2)0.5(ZrO2)0.3(Sm2O3)0.1,0.000648169,303.0197143,20,1.9,,https://doi.org/10.1016/j.jpowsour.2017.09.021,H
(BaO)1(CeO2)0.5(ZrO2)0.3(Sm2O3)0.1,0.000168761,252.6409034,20,1.9,,https://doi.org/10.1016/j.jpowsour.2017.09.021,H
(BaO)1(CeO2)0.5(ZrO2)0.3(Sm2O3)0.1,4.59555E-05,202.578209,20,1.9,,https://doi.org/10.1016/j.jpowsour.2017.09.021,H
(BaO)1(CeO2)0.5(ZrO2)0.3(Sm2O3)0.1,0.001858792,501.650087,20,0,,https://doi.org/10.1016/j.jpowsour.2017.09.021,H
(BaO)1(CeO2)0.5(ZrO2)0.3(Sm2O3)0.1,0.000915247,451.1254464,20,0,,https://doi.org/10.1016/j.jpowsour.2017.09.021,H
(BaO)1(CeO2)0.5(ZrO2)0.3(Sm2O3)0.1,0.000642233,402.8614675,20,0,,https://doi.org/10.1016/j.jpowsour.2017.09.021,H
(BaO)1(CeO2)0.5(ZrO2)0.3(Sm2O3)0.1,0.000253423,352.8224794,20,0,,https://doi.org/10.1016/j.jpowsour.2017.09.021,H
(BaO)1(CeO2)0.5(ZrO2)0.3(Sm2O3)0.1,0.0001,303.0197143,20,0,,https://doi.org/10.1016/j.jpowsour.2017.09.021,H
(BaO)1(CeO2)0.5(ZrO2)0.3(Sm2O3)0.1,3.45511E-05,252.6409034,20,0,,https://doi.org/10.1016/j.jpowsour.2017.09.021,H
(BaO)1(CeO2)0.5(ZrO2)0.3(Sm2O3)0.1,1.30432E-05,202.578209,20,0,,https://doi.org/10.1016/j.jpowsour.2017.09.021,H
(BaO)1(CeO2)0.5(ZrO2)0.3(Sm2O3)0.1,0.002198982,501.650087,20,1.9,,https://doi.org/10.1016/j.jpowsour.2017.09.021,H
(BaO)1(CeO2)0.5(ZrO2)0.3(Sm2O3)0.1,0.001286909,451.1254464,20,1.9,,https://doi.org/10.1016/j.jpowsour.2017.09.021,H
(BaO)1(CeO2)0.5(ZrO2)0.3(Sm2O3)0.1,0.000786679,402.8614675,20,1.9,,https://doi.org/10.1016/j.jpowsour.2017.09.021,H
(BaO)1(CeO2)0.5(ZrO2)0.3(Sm2O3)0.1,0.000420713,352.8224794,20,1.9,,https://doi.org/10.1016/j.jpowsour.2017.09.021,H
(BaO)1(CeO2)0.5(ZrO2)0.3(Sm2O3)0.1,8.86949E-05,303.0197143,20,1.9,,https://doi.org/10.1016/j.jpowsour.2017.09.021,H
(BaO)1(CeO2)0.5(ZrO2)0.3(Sm2O3)0.1,3.62793E-05,252.6409034,20,1.9,,https://doi.org/10.1016/j.jpowsour.2017.09.021,H
(BaO)1(CeO2)0.5(ZrO2)0.3(Sm2O3)0.1,1.0869E-05,202.578209,20,1.9,,https://doi.org/10.1016/j.jpowsour.2017.09.021,H
(BaO)1(CeO2)0.5(ZrO2)0.3(Nd2O3)0.1,0.001034805,501.650087,20,0,,https://doi.org/10.1016/j.jpowsour.2017.09.021,H
(BaO)1(CeO2)0.5(ZrO2)0.3(Nd2O3)0.1,0.000556892,451.1254464,20,0,,https://doi.org/10.1016/j.jpowsour.2017.09.021,H
(BaO)1(CeO2)0.5(ZrO2)0.3(Nd2O3)0.1,0.000342855,402.8614675,20,0,,https://doi.org/10.1016/j.jpowsour.2017.09.021,H
(BaO)1(CeO2)0.5(ZrO2)0.3(Nd2O3)0.1,0.000135253,352.8224794,20,0,,https://doi.org/10.1016/j.jpowsour.2017.09.021,H
(BaO)1(CeO2)0.5(ZrO2)0.3(Nd2O3)0.1,4.88605E-05,303.0197143,20,0,,https://doi.org/10.1016/j.jpowsour.2017.09.021,H
(BaO)1(CeO2)0.5(ZrO2)0.3(Nd2O3)0.1,2.02012E-05,252.6409034,20,0,,https://doi.org/10.1016/j.jpowsour.2017.09.021,H
(BaO)1(CeO2)0.5(ZrO2)0.3(Nd2O3)0.1,8.3684E-06,202.578209,20,0,,https://doi.org/10.1016/j.jpowsour.2017.09.021,H
(BaO)1(CeO2)0.5(ZrO2)0.3(Nd2O3)0.1,0.001214551,501.650087,20,1.9,,https://doi.org/10.1016/j.jpowsour.2017.09.021,H
(BaO)1(CeO2)0.5(ZrO2)0.3(Nd2O3)0.1,0.000775551,451.1254464,20,1.9,,https://doi.org/10.1016/j.jpowsour.2017.09.021,H
(BaO)1(CeO2)0.5(ZrO2)0.3(Nd2O3)0.1,0.000473505,402.8614675,20,1.9,,https://doi.org/10.1016/j.jpowsour.2017.09.021,H
(BaO)1(CeO2)0.5(ZrO2)0.3(Nd2O3)0.1,0.000330735,352.8224794,20,1.9,,https://doi.org/10.1016/j.jpowsour.2017.09.021,H
(BaO)1(CeO2)0.5(ZrO2)0.3(Nd2O3)0.1,9.41946E-05,303.0197143,20,1.9,,https://doi.org/10.1016/j.jpowsour.2017.09.021,H
(BaO)1(CeO2)0.5(ZrO2)0.3(Nd2O3)0.1,2.24207E-05,252.6409034,20,1.9,,https://doi.org/10.1016/j.jpowsour.2017.09.021,H
(BaO)1(CeO2)0.5(ZrO2)0.3(Nd2O3)0.1,7.64041E-06,202.578209,20,1.9,,https://doi.org/10.1016/j.jpowsour.2017.09.021,H
(BaO)1(CeO2)0.5(ZrO2)0.3(Nd2O3)0.1,0.003162278,501.650087,20,0,,https://doi.org/10.1016/j.jpowsour.2017.09.021,H
(BaO)1(CeO2)0.5(ZrO2)0.3(Nd2O3)0.1,0.002218982,451.1254464,20,0,,https://doi.org/10.1016/j.jpowsour.2017.09.021,H
(BaO)1(CeO2)0.5(ZrO2)0.3(Nd2O3)0.1,0.001247825,402.8614675,20,0,,https://doi.org/10.1016/j.jpowsour.2017.09.021,H
(BaO)1(CeO2)0.5(ZrO2)0.3(Nd2O3)0.1,0.000875604,352.8224794,20,0,,https://doi.org/10.1016/j.jpowsour.2017.09.021,H
(BaO)1(CeO2)0.5(ZrO2)0.3(Nd2O3)0.1,0.000450657,303.0197143,20,0,,https://doi.org/10.1016/j.jpowsour.2017.09.021,H
(BaO)1(CeO2)0.5(ZrO2)0.3(Nd2O3)0.1,0.000170125,252.6409034,20,0,,https://doi.org/10.1016/j.jpowsour.2017.09.021,H
(BaO)1(CeO2)0.5(ZrO2)0.3(Nd2O3)0.1,3.45511E-05,202.578209,20,0,,https://doi.org/10.1016/j.jpowsour.2017.09.021,H
(BaO)1(CeO2)0.5(ZrO2)0.3(Nd2O3)0.1,0.002997613,501.650087,20,1.9,,https://doi.org/10.1016/j.jpowsour.2017.09.021,H
(BaO)1(CeO2)0.5(ZrO2)0.3(Nd2O3)0.1,0.002288484,451.1254464,20,1.9,,https://doi.org/10.1016/j.jpowsour.2017.09.021,H
(BaO)1(CeO2)0.5(ZrO2)0.3(Nd2O3)0.1,0.001670016,402.8614675,20,1.9,,https://doi.org/10.1016/j.jpowsour.2017.09.021,H
(BaO)1(CeO2)0.5(ZrO2)0.3(Nd2O3)0.1,0.00081754,352.8224794,20,1.9,,https://doi.org/10.1016/j.jpowsour.2017.09.021,H