Composition,Conductivity (S/cm),Temperature (degC),PO2 (%),PH2O (%),Grainsize,Ref,Carrier Type
(SrO)1(CoO2)0.8(Sc2O3)0.0875(NbO)0.0125(NbO2)0.0125,24.03141361,426.8179174,2.00E+01,3.00E+00,,https://doi.org/10.1016/j.electacta.2017.11.037,O+H
(SrO)1(CoO2)0.8(Sc2O3)0.0875(NbO)0.0125(NbO2)0.0125,27.38219895,448.3644337,2.00E+01,3.00E+00,,https://doi.org/10.1016/j.electacta.2017.11.037,O+H
(SrO)1(CoO2)0.8(Sc2O3)0.0875(NbO)0.0125(NbO2)0.0125,29.89528796,476.2764577,2.00E+01,3.00E+00,,https://doi.org/10.1016/j.electacta.2017.11.037,O+H
(SrO)1(CoO2)0.8(Sc2O3)0.0875(NbO)0.0125(NbO2)0.0125,30.94240838,499.8366671,2.00E+01,3.00E+00,,https://doi.org/10.1016/j.electacta.2017.11.037,E
(SrO)1(CoO2)0.8(Sc2O3)0.0875(NbO)0.0125(NbO2)0.0125,32.82722513,523.4416253,2.00E+01,3.00E+00,,https://doi.org/10.1016/j.electacta.2017.11.037,E
(SrO)1(CoO2)0.8(Sc2O3)0.0875(NbO)0.0125(NbO2)0.0125,31.9895288,551.1746543,2.00E+01,3.00E+00,,https://doi.org/10.1016/j.electacta.2017.11.037,E
(SrO)1(CoO2)0.8(Sc2O3)0.0875(NbO)0.0125(NbO2)0.0125,31.78010471,576.8044928,2.00E+01,3.00E+00,,https://doi.org/10.1016/j.electacta.2017.11.037,E
(SrO)1(CoO2)0.8(Sc2O3)0.0875(NbO)0.0125(NbO2)0.0125,31.36125654,600.2863919,2.00E+01,3.00E+00,,https://doi.org/10.1016/j.electacta.2017.11.037,E
(SrO)1(CoO2)0.8(Sc2O3)0.0875(NbO)0.0125(NbO2)0.0125,31.15183246,625.9162304,2.00E+01,3.00E+00,,https://doi.org/10.1016/j.electacta.2017.11.037,E
(SrO)1(CoO2)0.8(Sc2O3)0.0875(NbO)0.0125(NbO2)0.0125,30.73298429,649.3981295,2.00E+01,3.00E+00,,https://doi.org/10.1016/j.electacta.2017.11.037,E
(SrO)1(CoO2)0.8(Sc2O3)0.0875(NbO)0.0125(NbO2)0.0125,30.31413613,675.0167808,2.00E+01,3.00E+00,,https://doi.org/10.1016/j.electacta.2017.11.037,E
(SrO)1(CoO2)0.8(Sc2O3)0.0875(NbO)0.0125(NbO2)0.0125,30.10471204,700.6466192,2.00E+01,3.00E+00,,https://doi.org/10.1016/j.electacta.2017.11.037,E
(SrO)1(CoO2)0.8(Sc2O3)0.0875(NbO)0.0125(NbO2)0.0125,29.89528796,726.2764577,2.00E+01,3.00E+00,,https://doi.org/10.1016/j.electacta.2017.11.037,E
(SrO)1(CoO2)0.8(Sc2O3)0.0875(NbO)0.0125(NbO2)0.0125,29.89528796,749.7807312,2.00E+01,3.00E+00,,https://doi.org/10.1016/j.electacta.2017.11.037,E
(SrO)1(CoO2)0.8(Sc2O3)0.0875(NbO)0.0125(NbO2)0.0125,29.89528796,775.4217568,2.00E+01,3.00E+00,,https://doi.org/10.1016/j.electacta.2017.11.037,E
(SrO)1(CoO2)0.8(Sc2O3)0.0875(NbO)0.0125(NbO2)0.0125,29.89528796,801.0627825,2.00E+01,3.00E+00,,https://doi.org/10.1016/j.electacta.2017.11.037,E
(SrO)1(CoO2)0.8(Sc2O3)0.0875(NbO)0.0125(NbO2)0.0125,14.81675393,349.4026044,2.00E+01,5.00E+00,,https://doi.org/10.1016/j.electacta.2017.11.037,O+H
(SrO)1(CoO2)0.8(Sc2O3)0.0875(NbO)0.0125(NbO2)0.0125,15.65445026,375.0883788,2.00E+01,5.00E+00,,https://doi.org/10.1016/j.electacta.2017.11.037,O+H
(SrO)1(CoO2)0.8(Sc2O3)0.0875(NbO)0.0125(NbO2)0.0125,18.37696335,400.8748378,2.00E+01,5.00E+00,,https://doi.org/10.1016/j.electacta.2017.11.037,O+H
(SrO)1(CoO2)0.8(Sc2O3)0.0875(NbO)0.0125(NbO2)0.0125,21.72774869,424.5581062,2.00E+01,5.00E+00,,https://doi.org/10.1016/j.electacta.2017.11.037,O+H
(SrO)1(CoO2)0.8(Sc2O3)0.0875(NbO)0.0125(NbO2)0.0125,24.2408377,450.3333781,2.00E+01,5.00E+00,,https://doi.org/10.1016/j.electacta.2017.11.037,O+H
(SrO)1(CoO2)0.8(Sc2O3)0.0875(NbO)0.0125(NbO2)0.0125,26.96335079,473.983085,2.00E+01,5.00E+00,,https://doi.org/10.1016/j.electacta.2017.11.037,O+H
(SrO)1(CoO2)0.8(Sc2O3)0.0875(NbO)0.0125(NbO2)0.0125,29.47643979,499.7583568,2.00E+01,5.00E+00,,https://doi.org/10.1016/j.electacta.2017.11.037,O+H
(SrO)1(CoO2)0.8(Sc2O3)0.0875(NbO)0.0125(NbO2)0.0125,30.31413613,525.4441312,2.00E+01,5.00E+00,,https://doi.org/10.1016/j.electacta.2017.11.037,O+H
(SrO)1(CoO2)0.8(Sc2O3)0.0875(NbO)0.0125(NbO2)0.0125,31.57068063,551.1522799,2.00E+01,5.00E+00,,https://doi.org/10.1016/j.electacta.2017.11.037,E
(SrO)1(CoO2)0.8(Sc2O3)0.0875(NbO)0.0125(NbO2)0.0125,31.15183246,576.7709312,2.00E+01,5.00E+00,,https://doi.org/10.1016/j.electacta.2017.11.037,E
(SrO)1(CoO2)0.8(Sc2O3)0.0875(NbO)0.0125(NbO2)0.0125,30.94240838,602.4007697,2.00E+01,5.00E+00,,https://doi.org/10.1016/j.electacta.2017.11.037,E
(SrO)1(CoO2)0.8(Sc2O3)0.0875(NbO)0.0125(NbO2)0.0125,30.73298429,623.7571039,2.00E+01,5.00E+00,,https://doi.org/10.1016/j.electacta.2017.11.037,E
(SrO)1(CoO2)0.8(Sc2O3)0.0875(NbO)0.0125(NbO2)0.0125,30.52356021,649.3869423,2.00E+01,5.00E+00,,https://doi.org/10.1016/j.electacta.2017.11.037,E
(SrO)1(CoO2)0.8(Sc2O3)0.0875(NbO)0.0125(NbO2)0.0125,30.31413613,672.8800286,2.00E+01,5.00E+00,,https://doi.org/10.1016/j.electacta.2017.11.037,E
(SrO)1(CoO2)0.8(Sc2O3)0.0875(NbO)0.0125(NbO2)0.0125,30.10471204,700.6466192,2.00E+01,5.00E+00,,https://doi.org/10.1016/j.electacta.2017.11.037,E
(SrO)1(CoO2)0.8(Sc2O3)0.0875(NbO)0.0125(NbO2)0.0125,29.89528796,724.1397056,2.00E+01,5.00E+00,,https://doi.org/10.1016/j.electacta.2017.11.037,E
(SrO)1(CoO2)0.8(Sc2O3)0.0875(NbO)0.0125(NbO2)0.0125,29.89528796,749.7807312,2.00E+01,5.00E+00,,https://doi.org/10.1016/j.electacta.2017.11.037,E
(SrO)1(CoO2)0.8(Sc2O3)0.0875(NbO)0.0125(NbO2)0.0125,29.89528796,775.4217568,2.00E+01,5.00E+00,,https://doi.org/10.1016/j.electacta.2017.11.037,E
(SrO)1(CoO2)0.8(Sc2O3)0.0875(NbO)0.0125(NbO2)0.0125,29.89528796,803.1995346,2.00E+01,5.00E+00,,https://doi.org/10.1016/j.electacta.2017.11.037,E
(SrO)1(CoO2)0.8(Sc2O3)0.0875(NbO)0.0125(NbO2)0.0125,14.81675393,349.4026044,2.00E+01,1.00E+01,,https://doi.org/10.1016/j.electacta.2017.11.037,O+H
(SrO)1(CoO2)0.8(Sc2O3)0.0875(NbO)0.0125(NbO2)0.0125,15.02617801,375.0548172,2.00E+01,1.00E+01,,https://doi.org/10.1016/j.electacta.2017.11.037,O+H
(SrO)1(CoO2)0.8(Sc2O3)0.0875(NbO)0.0125(NbO2)0.0125,17.7486911,400.8412762,2.00E+01,1.00E+01,,https://doi.org/10.1016/j.electacta.2017.11.037,O+H
(SrO)1(CoO2)0.8(Sc2O3)0.0875(NbO)0.0125(NbO2)0.0125,20.68062827,424.5021703,2.00E+01,1.00E+01,,https://doi.org/10.1016/j.electacta.2017.11.037,O+H
(SrO)1(CoO2)0.8(Sc2O3)0.0875(NbO)0.0125(NbO2)0.0125,23.61256545,450.2998165,2.00E+01,1.00E+01,,https://doi.org/10.1016/j.electacta.2017.11.037,O+H
(SrO)1(CoO2)0.8(Sc2O3)0.0875(NbO)0.0125(NbO2)0.0125,26.33507853,473.9495234,2.00E+01,1.00E+01,,https://doi.org/10.1016/j.electacta.2017.11.037,O+H
(SrO)1(CoO2)0.8(Sc2O3)0.0875(NbO)0.0125(NbO2)0.0125,28.21989529,501.8279859,2.00E+01,1.00E+01,,https://doi.org/10.1016/j.electacta.2017.11.037,O+H
(SrO)1(CoO2)0.8(Sc2O3)0.0875(NbO)0.0125(NbO2)0.0125,29.47643979,525.3993825,2.00E+01,1.00E+01,,https://doi.org/10.1016/j.electacta.2017.11.037,O+H
(SrO)1(CoO2)0.8(Sc2O3)0.0875(NbO)0.0125(NbO2)0.0125,30.52356021,551.096344,2.00E+01,1.00E+01,,https://doi.org/10.1016/j.electacta.2017.11.037,E
(SrO)1(CoO2)0.8(Sc2O3)0.0875(NbO)0.0125(NbO2)0.0125,31.15183246,576.7709312,2.00E+01,1.00E+01,,https://doi.org/10.1016/j.electacta.2017.11.037,E
(SrO)1(CoO2)0.8(Sc2O3)0.0875(NbO)0.0125(NbO2)0.0125,31.57068063,600.2975791,2.00E+01,1.00E+01,,https://doi.org/10.1016/j.electacta.2017.11.037,E
(SrO)1(CoO2)0.8(Sc2O3)0.0875(NbO)0.0125(NbO2)0.0125,30.73298429,625.893856,2.00E+01,1.00E+01,,https://doi.org/10.1016/j.electacta.2017.11.037,E
(SrO)1(CoO2)0.8(Sc2O3)0.0875(NbO)0.0125(NbO2)0.0125,30.31413613,651.5125073,2.00E+01,1.00E+01,,https://doi.org/10.1016/j.electacta.2017.11.037,E
(SrO)1(CoO2)0.8(Sc2O3)0.0875(NbO)0.0125(NbO2)0.0125,30.31413613,677.1535329,2.00E+01,1.00E+01,,https://doi.org/10.1016/j.electacta.2017.11.037,E
(SrO)1(CoO2)0.8(Sc2O3)0.0875(NbO)0.0125(NbO2)0.0125,30.10471204,700.6466192,2.00E+01,1.00E+01,,https://doi.org/10.1016/j.electacta.2017.11.037,E
(SrO)1(CoO2)0.8(Sc2O3)0.0875(NbO)0.0125(NbO2)0.0125,30.10471204,726.2876449,2.00E+01,1.00E+01,,https://doi.org/10.1016/j.electacta.2017.11.037,E
(SrO)1(CoO2)0.8(Sc2O3)0.0875(NbO)0.0125(NbO2)0.0125,29.89528796,751.9174833,2.00E+01,1.00E+01,,https://doi.org/10.1016/j.electacta.2017.11.037,E
(SrO)1(CoO2)0.8(Sc2O3)0.0875(NbO)0.0125(NbO2)0.0125,29.89528796,775.4217568,2.00E+01,1.00E+01,,https://doi.org/10.1016/j.electacta.2017.11.037,E
(SrO)1(CoO2)0.8(Sc2O3)0.0875(NbO)0.0125(NbO2)0.0125,30.10471204,801.0739697,2.00E+01,1.00E+01,,https://patents.google.com/patent/US10014529B2/en,O+H
(SrO)1(CoO2)0.8(Sc2O3)0.0875(NbO)0.0125(NbO2)0.0125,1.355609329,600,2.00E+01,3.00E+00,,https://patents.google.com/patent/US10014529B2/en,O+H
(La2O3)0.15(SrO)0.7(CoO2)0.07(TiO2)0.93,23.38028169,50.23474178,0.00E+00,0,,https://doi.org/10.1016/j.apt.2016.01.025,O+E
(La2O3)0.15(SrO)0.7(CoO2)0.07(TiO2)0.93,33.52112676,99.87480438,0.00E+00,0,,https://doi.org/10.1016/j.apt.2016.01.025,O+E
(La2O3)0.15(SrO)0.7(CoO2)0.07(TiO2)0.93,50.84507042,203.3802817,0.00E+00,0,,https://doi.org/10.1016/j.apt.2016.01.025,O+E
(La2O3)0.15(SrO)0.7(CoO2)0.07(TiO2)0.93,61.83098592,301.971831,0.00E+00,0,,https://doi.org/10.1016/j.apt.2016.01.025,O+E
(La2O3)0.15(SrO)0.7(CoO2)0.07(TiO2)0.93,72.81690141,400.5633803,0.00E+00,0,,https://doi.org/10.1016/j.apt.2016.01.025,O+E
(La2O3)0.15(SrO)0.7(CoO2)0.07(TiO2)0.93,74.50704225,507.3552426,0.00E+00,0,,https://doi.org/10.1016/j.apt.2016.01.025,E
(La2O3)0.15(SrO)0.7(CoO2)0.07(TiO2)0.93,73.23943662,556.1502347,0.00E+00,0,,https://doi.org/10.1016/j.apt.2016.01.025,E
(La2O3)0.15(SrO)0.7(CoO2)0.07(TiO2)0.93,71.54929577,604.913928,0.00E+00,0,,https://doi.org/10.1016/j.apt.2016.01.025,E
(La2O3)0.15(SrO)0.7(CoO2)0.07(TiO2)0.93,66.90140845,653.458529,0.00E+00,0,,https://doi.org/10.1016/j.apt.2016.01.025,E
(La2O3)0.15(SrO)0.7(CoO2)0.07(TiO2)0.93,63.94366197,702.1283255,0.00E+00,0,,https://doi.org/10.1016/j.apt.2016.01.025,E
(La2O3)0.15(SrO)0.7(CoO2)0.07(TiO2)0.93,58.45070423,755.0547731,0.00E+00,0,,https://doi.org/10.1016/j.apt.2016.01.025,E
(La2O3)0.15(SrO)0.7(CoO2)0.07(TiO2)0.93,54.64788732,803.6619718,0.00E+00,0,,https://doi.org/10.1016/j.apt.2016.01.025,E
(La2O3)0.15(SrO)0.7(CoO2)0.07(TiO2)0.93,52.11267606,852.3630673,0.00E+00,0,,https://doi.org/10.1016/j.apt.2016.01.025,E
(La2O3)0.15(SrO)0.7(CoO2)0.07(TiO2)0.93,47.88732394,905.3834116,0.00E+00,0,,https://doi.org/10.1016/j.apt.2016.01.025,E
(La2O3)0.15(SrO)0.7(CoO2)0.07(TiO2)0.93,22,49.75124378,2.00E+01,0,,https://doi.org/10.1016/j.apt.2016.01.025,O+E
(La2O3)0.15(SrO)0.7(CoO2)0.07(TiO2)0.93,32,99.50248756,2.00E+01,0,,https://doi.org/10.1016/j.apt.2016.01.025,O+E
(La2O3)0.15(SrO)0.7(CoO2)0.07(TiO2)0.93,43.5,149.2537313,2.00E+01,0,,https://doi.org/10.1016/j.apt.2016.01.025,O+E
(La2O3)0.15(SrO)0.7(CoO2)0.07(TiO2)0.93,48.5,199.0049751,2.00E+01,0,,https://doi.org/10.1016/j.apt.2016.01.025,O+E
(La2O3)0.15(SrO)0.7(CoO2)0.07(TiO2)0.93,55,248.7562189,2.00E+01,0,,https://doi.org/10.1016/j.apt.2016.01.025,O+E
(La2O3)0.15(SrO)0.7(CoO2)0.07(TiO2)0.93,61,298.5074627,2.00E+01,0,,https://doi.org/10.1016/j.apt.2016.01.025,O+E
(La2O3)0.15(SrO)0.7(CoO2)0.07(TiO2)0.93,64.5,353.2338308,2.00E+01,0,,https://doi.org/10.1016/j.apt.2016.01.025,O+E
(La2O3)0.15(SrO)0.7(CoO2)0.07(TiO2)0.93,66,402.9850746,2.00E+01,0,,https://doi.org/10.1016/j.apt.2016.01.025,O+E
(La2O3)0.15(SrO)0.7(CoO2)0.07(TiO2)0.93,67,452.7363184,2.00E+01,0,,https://doi.org/10.1016/j.apt.2016.01.025,O+E
(La2O3)0.15(SrO)0.7(CoO2)0.07(TiO2)0.93,66,502.4875622,2.00E+01,0,,https://doi.org/10.1016/j.apt.2016.01.025,E
(La2O3)0.15(SrO)0.7(CoO2)0.07(TiO2)0.93,63.5,552.238806,2.00E+01,0,,https://doi.org/10.1016/j.apt.2016.01.025,E
(La2O3)0.15(SrO)0.7(CoO2)0.07(TiO2)0.93,60,601.9900498,2.00E+01,0,,https://doi.org/10.1016/j.apt.2016.01.025,E
(La2O3)0.15(SrO)0.7(CoO2)0.07(TiO2)0.93,57.5,651.7412935,2.00E+01,0,,https://doi.org/10.1016/j.apt.2016.01.025,E
(La2O3)0.15(SrO)0.7(CoO2)0.07(TiO2)0.93,53,701.4925373,2.00E+01,0,,https://doi.org/10.1016/j.apt.2016.01.025,E
(La2O3)0.15(SrO)0.7(CoO2)0.07(TiO2)0.93,50.5,751.2437811,2.00E+01,0,,https://doi.org/10.1016/j.apt.2016.01.025,E
(La2O3)0.15(SrO)0.7(CoO2)0.07(TiO2)0.93,45,800.9950249,2.00E+01,0,,https://doi.org/10.1016/j.apt.2016.01.025,E
(La2O3)0.15(SrO)0.7(CoO2)0.07(TiO2)0.93,23,850.7462687,2.00E+01,0,,https://doi.org/10.1016/j.apt.2016.01.025,E
(La2O3)0.15(SrO)0.7(CoO2)0.07(TiO2)0.93,8,900.4975124,2.00E+01,0,,https://doi.org/10.1016/j.apt.2016.01.025,E
(La2O3)0.15(SrO)0.7(CoO2)0.07(TiO2)0.93,3,955.2238806,2.00E+01,0,,https://doi.org/10.1016/j.apt.2016.01.025,E
(La2O3)0.1425(SrO)0.665(CoO2)0.07(TiO2)0.93,19.57746479,49.95305164,0.00E+00,0,,https://doi.org/10.1016/j.apt.2016.01.025,O+E
(La2O3)0.1425(SrO)0.665(CoO2)0.07(TiO2)0.93,29.29577465,99.56181534,0.00E+00,0,,https://doi.org/10.1016/j.apt.2016.01.025,O+E
(La2O3)0.1425(SrO)0.665(CoO2)0.07(TiO2)0.93,43.66197183,198.4037559,0.00E+00,0,,https://doi.org/10.1016/j.apt.2016.01.025,O+E
(La2O3)0.1425(SrO)0.665(CoO2)0.07(TiO2)0.93,51.69014085,252.3317684,0.00E+00,0,,https://doi.org/10.1016/j.apt.2016.01.025,O+E
(La2O3)0.1425(SrO)0.665(CoO2)0.07(TiO2)0.93,56.33802817,301.5649452,0.00E+00,0,,https://doi.org/10.1016/j.apt.2016.01.025,O+E
(La2O3)0.1425(SrO)0.665(CoO2)0.07(TiO2)0.93,61.83098592,350.8607199,0.00E+00,0,,https://doi.org/10.1016/j.apt.2016.01.025,O+E
(La2O3)0.1425(SrO)0.665(CoO2)0.07(TiO2)0.93,65.21126761,404.4444444,0.00E+00,0,,https://doi.org/10.1016/j.apt.2016.01.025,O+E
(La2O3)0.1425(SrO)0.665(CoO2)0.07(TiO2)0.93,68.16901408,453.5524257,0.00E+00,0,,https://doi.org/10.1016/j.apt.2016.01.025,O+E
(La2O3)0.1425(SrO)0.665(CoO2)0.07(TiO2)0.93,69.43661972,502.5352113,0.00E+00,0,,https://doi.org/10.1016/j.apt.2016.01.025,E
(La2O3)0.1425(SrO)0.665(CoO2)0.07(TiO2)0.93,67.32394366,555.7120501,0.00E+00,0,,https://doi.org/10.1016/j.apt.2016.01.025,E
(La2O3)0.1425(SrO)0.665(CoO2)0.07(TiO2)0.93,63.94366197,608.7949922,0.00E+00,0,,https://doi.org/10.1016/j.apt.2016.01.025,E
(La2O3)0.1425(SrO)0.665(CoO2)0.07(TiO2)0.93,60.14084507,652.9577465,0.00E+00,0,,https://doi.org/10.1016/j.apt.2016.01.025,E
(La2O3)0.1425(SrO)0.665(CoO2)0.07(TiO2)0.93,56.76056338,706.0406886,0.00E+00,0,,https://doi.org/10.1016/j.apt.2016.01.025,E
(La2O3)0.1425(SrO)0.665(CoO2)0.07(TiO2)0.93,53.8028169,754.7104851,0.00E+00,0,,https://doi.org/10.1016/j.apt.2016.01.025,E
(La2O3)0.1425(SrO)0.665(CoO2)0.07(TiO2)0.93,49.57746479,803.286385,0.00E+00,0,,https://doi.org/10.1016/j.apt.2016.01.025,E
(La2O3)0.1425(SrO)0.665(CoO2)0.07(TiO2)0.93,45.77464789,851.8935837,0.00E+00,0,,https://doi.org/10.1016/j.apt.2016.01.025,E
(La2O3)0.1425(SrO)0.665(CoO2)0.07(TiO2)0.93,41.54929577,904.913928,0.00E+00,0,,https://doi.org/10.1016/j.apt.2016.01.025,E
(La2O3)0.1425(SrO)0.665(CoO2)0.07(TiO2)0.93,17.81231833,54.18719212,2.00E+01,0,,https://doi.org/10.1016/j.apt.2016.01.025,O+E
(La2O3)0.1425(SrO)0.665(CoO2)0.07(TiO2)0.93,25.73815133,103.4482759,2.00E+01,0,,https://doi.org/10.1016/j.apt.2016.01.025,O+E
(La2O3)0.1425(SrO)0.665(CoO2)0.07(TiO2)0.93,37.14469296,147.7832512,2.00E+01,0,,https://doi.org/10.1016/j.apt.2016.01.025,O+E
(La2O3)0.1425(SrO)0.665(CoO2)0.07(TiO2)0.93,42.08671175,201.9704433,2.00E+01,0,,https://doi.org/10.1016/j.apt.2016.01.025,O+E
(La2O3)0.1425(SrO)0.665(CoO2)0.07(TiO2)0.93,49.51565034,251.2315271,2.00E+01,0,,https://doi.org/10.1016/j.apt.2016.01.025,O+E
(La2O3)0.1425(SrO)0.665(CoO2)0.07(TiO2)0.93,53.96567023,295.5665025,2.00E+01,0,,https://doi.org/10.1016/j.apt.2016.01.025,O+E
(La2O3)0.1425(SrO)0.665(CoO2)0.07(TiO2)0.93,59.40213567,354.679803,2.00E+01,0,,https://doi.org/10.1016/j.apt.2016.01.025,O+E
(La2O3)0.1425(SrO)0.665(CoO2)0.07(TiO2)0.93,63.35526114,399.0147783,2.00E+01,0,,https://doi.org/10.1016/j.apt.2016.01.025,O+E
(La2O3)0.1425(SrO)0.665(CoO2)0.07(TiO2)0.93,61.84010036,448.2758621,2.00E+01,0,,https://doi.org/10.1016/j.apt.2016.01.025,E
(La2O3)0.1425(SrO)0.665(CoO2)0.07(TiO2)0.93,60.32493957,497.5369458,2.00E+01,0,,https://doi.org/10.1016/j.apt.2016.01.025,E
(La2O3)0.1425(SrO)0.665(CoO2)0.07(TiO2)0.93,57.81109445,556.6502463,2.00E+01,0,,https://doi.org/10.1016/j.apt.2016.01.025,E
(La2O3)0.1425(SrO)0.665(CoO2)0.07(TiO2)0.93,54.31080378,600.9852217,2.00E+01,0,,https://doi.org/10.1016/j.apt.2016.01.025,E
(La2O3)0.1425(SrO)0.665(CoO2)0.07(TiO2)0.93,51.80185417,650.2463054,2.00E+01,0,,https://doi.org/10.1016/j.apt.2016.01.025,E
(La2O3)0.1425(SrO)0.665(CoO2)0.07(TiO2)0.93,48.29666799,704.4334975,2.00E+01,0,,https://doi.org/10.1016/j.apt.2016.01.025,E
(La2O3)0.1425(SrO)0.665(CoO2)0.07(TiO2)0.93,45.29327173,748.7684729,2.00E+01,0,,https://doi.org/10.1016/j.apt.2016.01.025,E
(La2O3)0.1425(SrO)0.665(CoO2)0.07(TiO2)0.93,41.7905333,798.0295567,2.00E+01,0,,https://doi.org/10.1016/j.apt.2016.01.025,E
(La2O3)0.1425(SrO)0.665(CoO2)0.07(TiO2)0.93,38.78468929,847.2906404,2.00E+01,0,,https://doi.org/10.1016/j.apt.2016.01.025,E
(La2O3)0.1425(SrO)0.665(CoO2)0.07(TiO2)0.93,34.7826087,901.4778325,2.00E+01,0,,https://doi.org/10.1016/j.apt.2016.01.025,E
(La2O3)0.1425(SrO)0.665(CoO2)0.07(TiO2)0.93,31.77676468,950.7389163,2.00E+01,0,,https://doi.org/10.1016/j.apt.2016.01.025,E
(SrO)1(Sc2O3)0.0875(NbO2)0.025(CoO2)0.8,17.85209287,349.8915401,20,0,,https://doi.org/10.1016/j.apenergy.2019.01.094,H+E
(SrO)1(Sc2O3)0.0875(NbO2)0.025(CoO2)0.8,21.73636218,374.8373102,20,0,,https://doi.org/10.1016/j.apenergy.2019.01.094,H+E
(SrO)1(Sc2O3)0.0875(NbO2)0.025(CoO2)0.8,25.34265285,400.867679,20,0,,https://doi.org/10.1016/j.apenergy.2019.01.094,H+E
(SrO)1(Sc2O3)0.0875(NbO2)0.025(CoO2)0.8,28.76416004,424.7288503,20,0,,https://doi.org/10.1016/j.apenergy.2019.01.094,H+E
(SrO)1(Sc2O3)0.0875(NbO2)0.025(CoO2)0.8,31.53711738,450.7592191,20,0,,https://doi.org/10.1016/j.apenergy.2019.01.094,H+E
(SrO)1(Sc2O3)0.0875(NbO2)0.025(CoO2)0.8,33.94010605,474.6203905,20,0,,https://doi.org/10.1016/j.apenergy.2019.01.094,H+E
(SrO)1(Sc2O3)0.0875(NbO2)0.025(CoO2)0.8,33.93528561,500.6507592,20,0,,https://doi.org/10.1016/j.apenergy.2019.01.094,E
(SrO)1(Sc2O3)0.0875(NbO2)0.025(CoO2)0.8,33.46790391,524.5119306,20,0,,https://doi.org/10.1016/j.apenergy.2019.01.094,E
(SrO)1(Sc2O3)0.0875(NbO2)0.025(CoO2)0.8,32.90772877,549.4577007,20,0,,https://doi.org/10.1016/j.apenergy.2019.01.094,E
(SrO)1(Sc2O3)0.0875(NbO2)0.025(CoO2)0.8,32.43994537,575.4880694,20,0,,https://doi.org/10.1016/j.apenergy.2019.01.094,E
(SrO)1(Sc2O3)0.0875(NbO2)0.025(CoO2)0.8,31.78717763,600.4338395,20,0,,https://doi.org/10.1016/j.apenergy.2019.01.094,E
(SrO)1(Sc2O3)0.0875(NbO2)0.025(CoO2)0.8,31.31959508,625.3796095,20,0,,https://doi.org/10.1016/j.apenergy.2019.01.094,E
(SrO)1(Sc2O3)0.0875(NbO2)0.025(CoO2)0.8,31.03759942,648.1561822,20,0,,https://doi.org/10.1016/j.apenergy.2019.01.094,E
(SrO)1(Sc2O3)0.0875(NbO2)0.025(CoO2)0.8,30.84719209,676.3557484,20,0,,https://doi.org/10.1016/j.apenergy.2019.01.094,E
(SrO)1(Sc2O3)0.0875(NbO2)0.025(CoO2)0.8,30.65758817,700.2169197,20,0,,https://doi.org/10.1016/j.apenergy.2019.01.094,E
(SrO)1(Sc2O3)0.0875(NbO2)0.025(CoO2)0.8,30.56037599,725.1626898,20,0,,https://doi.org/10.1016/j.apenergy.2019.01.094,E
(SrO)1(Sc2O3)0.0875(NbO2)0.025(CoO2)0.8,30.46296296,751.1930586,20,0,,https://doi.org/10.1016/j.apenergy.2019.01.094,E
(SrO)1(Sc2O3)0.0875(NbO2)0.025(CoO2)0.8,30.55113682,775.0542299,20,0,,https://doi.org/10.1016/j.apenergy.2019.01.094,E
(SrO)1(Sc2O3)0.0875(NbO2)0.025(CoO2)0.8,30.63910983,800,20,3,,https://doi.org/10.1016/j.apenergy.2019.01.094,E
(SrO)1(Sc2O3)0.0875(NbO2)0.025(CoO2)0.8,15.25950028,349.8915401,20,3,,https://doi.org/10.1016/j.apenergy.2019.01.094,H+E
(SrO)1(Sc2O3)0.0875(NbO2)0.025(CoO2)0.8,17.47710292,374.8373102,20,3,,https://doi.org/10.1016/j.apenergy.2019.01.094,H+E
(SrO)1(Sc2O3)0.0875(NbO2)0.025(CoO2)0.8,20.71302322,400.867679,20,3,,https://doi.org/10.1016/j.apenergy.2019.01.094,H+E
(SrO)1(Sc2O3)0.0875(NbO2)0.025(CoO2)0.8,24.04173696,425.813449,20,3,,https://doi.org/10.1016/j.apenergy.2019.01.094,H+E
(SrO)1(Sc2O3)0.0875(NbO2)0.025(CoO2)0.8,27.74102193,449.6746204,20,3,,https://doi.org/10.1016/j.apenergy.2019.01.094,H+E
(SrO)1(Sc2O3)0.0875(NbO2)0.025(CoO2)0.8,30.14380975,474.6203905,20,3,,https://doi.org/10.1016/j.apenergy.2019.01.094,H+E
(SrO)1(Sc2O3)0.0875(NbO2)0.025(CoO2)0.8,31.25030128,499.5661605,20,3,,https://doi.org/10.1016/j.apenergy.2019.01.094,H+E
(SrO)1(Sc2O3)0.0875(NbO2)0.025(CoO2)0.8,33.0047401,525.5965293,20,3,,https://doi.org/10.1016/j.apenergy.2019.01.094,E
(SrO)1(Sc2O3)0.0875(NbO2)0.025(CoO2)0.8,32.07419459,550.5422993,20,3,,https://doi.org/10.1016/j.apenergy.2019.01.094,E
(SrO)1(Sc2O3)0.0875(NbO2)0.025(CoO2)0.8,31.88459066,574.4034707,20,3,,https://doi.org/10.1016/j.apenergy.2019.01.094,E
(SrO)1(Sc2O3)0.0875(NbO2)0.025(CoO2)0.8,31.41680726,600.4338395,20,3,,https://doi.org/10.1016/j.apenergy.2019.01.094,E