Composition,Conductivity (S/cm),Temperature (degC),PO2 (%),PH2O (%),Grainsize,Ref,Carrier Type
(BaO)1(CeO2)0.75(Y2O3)0.075(SnO2)0.1,0.002576892,550,0,3,,https://doi.org/10.1016/j.jallcom.2008.12.120,H
(BaO)1(CeO2)0.75(Y2O3)0.075(SnO2)0.1,0.00342906,600,0,3,,https://doi.org/10.1016/j.jallcom.2008.12.120,H
(BaO)1(CeO2)0.75(Y2O3)0.075(SnO2)0.1,0.003794176,650,0,3,,https://doi.org/10.1016/j.jallcom.2008.12.120,H
(BaO)1(CeO2)0.75(Y2O3)0.075(SnO2)0.1,0.004362386,700,0,3,,https://doi.org/10.1016/j.jallcom.2008.12.120,H
(BaO)1(CeO2)0.75(Y2O3)0.075(SnO2)0.1,0.005173877,800,0,3,,https://doi.org/10.1016/j.jallcom.2008.12.120,H
(BaO)1(CeO2)0.8(Y2O3)0.05(SnO2)0.1,0.000783163,500,0,3,,https://doi.org/10.1016/j.jallcom.2008.12.120,H
(BaO)1(CeO2)0.8(Y2O3)0.05(SnO2)0.1,0.00102664,550,0,3,,https://doi.org/10.1016/j.jallcom.2008.12.120,H
(BaO)1(CeO2)0.8(Y2O3)0.05(SnO2)0.1,0.001676009,600,0,3,,https://doi.org/10.1016/j.jallcom.2008.12.120,H
(BaO)1(CeO2)0.8(Y2O3)0.05(SnO2)0.1,0.002041126,650,0,3,,https://doi.org/10.1016/j.jallcom.2008.12.120,H
(BaO)1(CeO2)0.8(Y2O3)0.05(SnO2)0.1,0.002365761,700,0,3,,https://doi.org/10.1016/j.jallcom.2008.12.120,H
(BaO)1(CeO2)0.8(Y2O3)0.05(SnO2)0.1,0.002812135,800,0,3,,https://doi.org/10.1016/j.jallcom.2008.12.120,H
(BaO)1(CeO2)0.7(Nd2O3)0.05(Gd2O3)0.1,0.002354578,498.6488813,0,1.9,4,https://doi.org/10.1016/j.jpowsour.2008.11.007,H
(BaO)1(CeO2)0.7(Nd2O3)0.05(Gd2O3)0.1,0.003416037,549.5948865,0,1.9,4,https://doi.org/10.1016/j.jpowsour.2008.11.007,H
(BaO)1(CeO2)0.7(Nd2O3)0.05(Gd2O3)0.1,0.004586007,598.7066356,0,1.9,4,https://doi.org/10.1016/j.jpowsour.2008.11.007,H
(BaO)1(CeO2)0.7(Nd2O3)0.05(Gd2O3)0.1,0.0060267,649.632649,0,1.9,4,https://doi.org/10.1016/j.jpowsour.2008.11.007,H
(BaO)1(CeO2)0.7(Nd2O3)0.05(Gd2O3)0.1,0.007006858,698.7527281,0,1.9,4,https://doi.org/10.1016/j.jpowsour.2008.11.007,H
(BaO)1(CeO2)0.7(Nd2O3)0.05(Gd2O3)0.1,0.008447663,749.0623247,0,1.9,4,https://doi.org/10.1016/j.jpowsour.2008.11.007,H
(BaO)1(CeO2)0.7(Nd2O3)0.05(Gd2O3)0.1,0.009400721,799.3869153,0,1.9,4,https://doi.org/10.1016/j.jpowsour.2008.11.007,H
(BaO)1(CeO2)0.7(In2O3)0.05(Gd2O3)0.1,0.010665006,800.6492572,0,0,10,https://doi.org/10.1016/j.electacta.2011.11.004,H
(BaO)1(CeO2)0.7(In2O3)0.05(Gd2O3)0.1,0.007918467,749.9528536,0,0,10,https://doi.org/10.1016/j.electacta.2011.11.004,H
(BaO)1(CeO2)0.7(In2O3)0.05(Gd2O3)0.1,0.005804638,699.4310777,0,0,10,https://doi.org/10.1016/j.electacta.2011.11.004,H
(BaO)1(CeO2)0.7(In2O3)0.05(Gd2O3)0.1,0.00420524,648.3920526,0,0,10,https://doi.org/10.1016/j.electacta.2011.11.004,H
(BaO)1(CeO2)0.7(In2O3)0.05(Gd2O3)0.1,0.003092591,600.0719,0,0,10,https://doi.org/10.1016/j.electacta.2011.11.004,H
(BaO)1(CeO2)0.7(In2O3)0.05(Gd2O3)0.1,0.002433609,548.1129092,0,0,10,https://doi.org/10.1016/j.electacta.2011.11.004,H
(BaO)1(CeO2)0.7(In2O3)0.05(Gd2O3)0.1,0.001858309,499.2266884,0,0,10,https://doi.org/10.1016/j.electacta.2011.11.004,H
(BaO)1(CeO2)0.7(In2O3)0.05(Gd2O3)0.1,0.011086165,800.6492572,20,0,10,https://doi.org/10.1016/j.electacta.2011.11.004,H
(BaO)1(CeO2)0.7(In2O3)0.05(Gd2O3)0.1,0.009008797,749.9528536,20,0,10,https://doi.org/10.1016/j.electacta.2011.11.004,H
(BaO)1(CeO2)0.7(In2O3)0.05(Gd2O3)0.1,0.007062905,699.4310777,20,0,10,https://doi.org/10.1016/j.electacta.2011.11.004,H
(BaO)1(CeO2)0.7(In2O3)0.05(Gd2O3)0.1,0.005425747,648.3920526,20,0,10,https://doi.org/10.1016/j.electacta.2011.11.004,H
(BaO)1(CeO2)0.7(In2O3)0.05(Gd2O3)0.1,0.004167076,600.0719,20,0,10,https://doi.org/10.1016/j.electacta.2011.11.004,H
(BaO)1(CeO2)0.7(In2O3)0.05(Gd2O3)0.1,0.003254526,548.1129092,20,0,10,https://doi.org/10.1016/j.electacta.2011.11.004,H
(BaO)1(CeO2)0.7(In2O3)0.05(Gd2O3)0.1,0.002620616,499.2266884,20,0,10,https://doi.org/10.1016/j.electacta.2011.11.004,H
(BaO)1(CeO2)0.7(In2O3)0.05(Y2O3)0.1,0.009189143,801.1971207,0,0,5,https://doi.org/10.1016/j.electacta.2011.11.004,H
(BaO)1(CeO2)0.7(In2O3)0.05(Y2O3)0.1,0.007355724,751.8283148,0,0,5,https://doi.org/10.1016/j.electacta.2011.11.004,H
(BaO)1(CeO2)0.7(In2O3)0.05(Y2O3)0.1,0.006165042,700.8955823,0,0,5,https://doi.org/10.1016/j.electacta.2011.11.004,H
(BaO)1(CeO2)0.7(In2O3)0.05(Y2O3)0.1,0.004596334,650.8095238,0,0,5,https://doi.org/10.1016/j.electacta.2011.11.004,H
(BaO)1(CeO2)0.7(In2O3)0.05(Y2O3)0.1,0.003096767,600.8738739,0,0,5,https://doi.org/10.1016/j.electacta.2011.11.004,H
(BaO)1(CeO2)0.7(In2O3)0.05(Y2O3)0.1,0.001665932,550.7791932,0,0,5,https://doi.org/10.1016/j.electacta.2011.11.004,H
(BaO)1(CeO2)0.7(In2O3)0.05(Y2O3)0.1,0.000915733,500.5247209,0,0,5,https://doi.org/10.1016/j.electacta.2011.11.004,H
(BaO)1(CeO2)0.7(In2O3)0.05(Y2O3)0.1,0.007523683,801.1971207,20,0,5,https://doi.org/10.1016/j.electacta.2011.11.004,H
(BaO)1(CeO2)0.7(In2O3)0.05(Y2O3)0.1,0.005289967,751.8283148,20,0,5,https://doi.org/10.1016/j.electacta.2011.11.004,H
(BaO)1(CeO2)0.7(In2O3)0.05(Y2O3)0.1,0.003991012,700.8955823,20,0,5,https://doi.org/10.1016/j.electacta.2011.11.004,H
(BaO)1(CeO2)0.7(In2O3)0.05(Y2O3)0.1,0.003181454,650.8095238,20,0,5,https://doi.org/10.1016/j.electacta.2011.11.004,H
(BaO)1(CeO2)0.7(In2O3)0.05(Y2O3)0.1,0.002226223,600.8738739,20,0,5,https://doi.org/10.1016/j.electacta.2011.11.004,H
(BaO)1(CeO2)0.7(In2O3)0.05(Y2O3)0.1,0.001648683,550.7791932,20,0,5,https://doi.org/10.1016/j.electacta.2011.11.004,H
(BaO)1(CeO2)0.7(In2O3)0.05(Y2O3)0.1,0.001242181,500.5247209,20,0,5,https://doi.org/10.1016/j.electacta.2011.11.004,H
(BaO)1(ZrO2)0.7(Pr2O3)0.05(Y2O3)0.1,0.022353471,706.8534799,20,0,1.7,https://doi.org/10.1002/adfm.201001540,O+E
(BaO)1(ZrO2)0.7(Pr2O3)0.05(Y2O3)0.1,0.014951077,657.4347826,20,0,1.7,https://doi.org/10.1002/adfm.201001540,O+E
(BaO)1(ZrO2)0.7(Pr2O3)0.05(Y2O3)0.1,0.009605783,604.0491803,20,0,1.7,https://doi.org/10.1002/adfm.201001540,O+E
(BaO)1(ZrO2)0.7(Pr2O3)0.05(Y2O3)0.1,0.006171532,552.617284,20,0,1.7,https://doi.org/10.1002/adfm.201001540,O+E
(BaO)1(ZrO2)0.7(Pr2O3)0.05(Y2O3)0.1,0.003965092,511.457478,20,0,1.7,https://doi.org/10.1002/adfm.201001540,O+E
(BaO)1(ZrO2)0.7(Pr2O3)0.05(Y2O3)0.1,0.001636718,449.972973,20,0,1.7,https://doi.org/10.1002/adfm.201001540,O+E
(BaO)1(ZrO2)0.7(Pr2O3)0.05(Y2O3)0.1,0.000762248,395.75,20,0,1.7,https://doi.org/10.1002/adfm.201001540,O+E
(BaO)1(ZrO2)0.7(Pr2O3)0.05(Y2O3)0.1,0.000451879,354.9342723,20,0,1.7,https://doi.org/10.1002/adfm.201001540,O+E
(BaO)1(ZrO2)0.7(Pr2O3)0.05(Y2O3)0.1,0.017620801,703.0743533,0,1.9,1.7,https://doi.org/10.1002/adfm.201001540,H
(BaO)1(ZrO2)0.7(Pr2O3)0.05(Y2O3)0.1,0.011932899,658.8077336,0,1.9,1.7,https://doi.org/10.1002/adfm.201001540,H
(BaO)1(ZrO2)0.7(Pr2O3)0.05(Y2O3)0.1,0.008743253,615.3997166,0,1.9,1.7,https://doi.org/10.1002/adfm.201001540,H
(BaO)1(ZrO2)0.7(Pr2O3)0.05(Y2O3)0.1,0.006354652,565.1846837,0,1.9,1.7,https://doi.org/10.1002/adfm.201001540,H
(BaO)1(ZrO2)0.7(Pr2O3)0.05(Y2O3)0.1,0.003591798,509.8932545,0,1.9,1.7,https://doi.org/10.1002/adfm.201001540,H
(BaO)1(ZrO2)0.7(Pr2O3)0.05(Y2O3)0.1,0.002492054,464.4691492,0,1.9,1.7,https://doi.org/10.1002/adfm.201001540,H
(BaO)1(ZrO2)0.7(Pr2O3)0.05(Y2O3)0.1,0.00107786,399.4640673,0,1.9,1.7,https://doi.org/10.1002/adfm.201001540,H
(BaO)1(ZrO2)0.7(Pr2O3)0.05(Y2O3)0.1,0.000705297,352.2024231,0,1.9,1.7,https://doi.org/10.1002/adfm.201001540,H
(BaO)1(ZrO2)0.7(Pr2O3)0.05(Y2O3)0.1,0.026779858,707.5903761,20,1.9,1.7,https://doi.org/10.1002/adfm.201001540,O+E
(BaO)1(ZrO2)0.7(Pr2O3)0.05(Y2O3)0.1,0.018678193,654.6970161,20,1.9,1.7,https://doi.org/10.1002/adfm.201001540,O+E
(BaO)1(ZrO2)0.7(Pr2O3)0.05(Y2O3)0.1,0.012271589,608.1773256,20,1.9,1.7,https://doi.org/10.1002/adfm.201001540,O+E
(BaO)1(ZrO2)0.7(Pr2O3)0.05(Y2O3)0.1,0.008949265,557.4794521,20,1.9,1.7,https://doi.org/10.1002/adfm.201001540,O+E
(BaO)1(ZrO2)0.7(Pr2O3)0.05(Y2O3)0.1,0.005135908,503.2483995,20,1.9,1.7,https://doi.org/10.1002/adfm.201001540,O+E
(BaO)1(ZrO2)0.7(Pr2O3)0.05(Y2O3)0.1,0.003036738,454.3545291,20,1.9,1.7,https://doi.org/10.1002/adfm.201001540,O+E
(BaO)1(ZrO2)0.7(Pr2O3)0.05(Y2O3)0.1,0.001477545,400.9855475,20,1.9,1.7,https://doi.org/10.1002/adfm.201001540,O+E
(BaO)1(ZrO2)0.7(Pr2O3)0.05(Y2O3)0.1,0.000797985,350.0729702,20,1.9,1.7,https://doi.org/10.1002/adfm.201001540,O+E
(BaO)1(ZrO2)0.7(Pr2O3)0.05(Y2O3)0.1,0.017929612,700,0.010213,1.9,1.7,https://doi.org/10.1002/adfm.201001540,H
(BaO)1(ZrO2)0.7(Pr2O3)0.05(Y2O3)0.1,0.020092909,700,0.818546731,1.9,1.7,https://doi.org/10.1002/adfm.201001540,H
(BaO)1(ZrO2)0.7(Pr2O3)0.05(Y2O3)0.1,0.022100034,700,5.34181431,1.9,1.7,https://doi.org/10.1002/adfm.201001540,H
(BaO)1(ZrO2)0.7(Pr2O3)0.05(Y2O3)0.1,0.026166026,700,23.35721469,1.9,1.7,https://doi.org/10.1002/adfm.201001540,H
(BaO)1(ZrO2)0.7(Pr2O3)0.05(Y2O3)0.1,0.010506617,600,0.009791443,1.9,1.7,https://doi.org/10.1002/adfm.201001540,H
(BaO)1(ZrO2)0.7(Pr2O3)0.05(Y2O3)0.1,0.009439674,600,0.78475997,1.9,1.7,https://doi.org/10.1002/adfm.201001540,H
(BaO)1(ZrO2)0.7(Pr2O3)0.05(Y2O3)0.1,0.0097289,600,5.34181431,1.9,1.7,https://doi.org/10.1002/adfm.201001540,H
(BaO)1(ZrO2)0.7(Pr2O3)0.05(Y2O3)0.1,0.011251622,600,22.39311016,1.9,1.7,https://doi.org/10.1002/adfm.201001540,H
(BaO)1(ZrO2)0.7(Pr2O3)0.05(Y2O3)0.1,0.004939607,500,0.009791443,1.9,1.7,https://doi.org/10.1002/adfm.201001540,H
(BaO)1(ZrO2)0.7(Pr2O3)0.05(Y2O3)0.1,0.005041048,500,0.78475997,1.9,1.7,https://doi.org/10.1002/adfm.201001540,H
(BaO)1(ZrO2)0.7(Pr2O3)0.05(Y2O3)0.1,0.004780289,500,5.230406815,1.9,1.7,https://doi.org/10.1002/adfm.201001540,H
(BaO)1(ZrO2)0.7(Pr2O3)0.05(Y2O3)0.1,0.005203512,500,22.39311016,1.9,1.7,https://doi.org/10.1002/adfm.201001540,H
(BaO)1(ZrO2)0.7(Pr2O3)0.05(Y2O3)0.1,0.001778409,400,0.010213,1.9,1.7,https://doi.org/10.1002/adfm.201001540,H
(BaO)1(ZrO2)0.7(Pr2O3)0.05(Y2O3)0.1,0.001879694,400,0.801475332,1.9,1.7,https://doi.org/10.1002/adfm.201001540,H
(BaO)1(ZrO2)0.7(Pr2O3)0.05(Y2O3)0.1,0.002168605,400,5.230406815,1.9,1.7,https://doi.org/10.1002/adfm.201001540,H
(BaO)1(ZrO2)0.7(Pr2O3)0.05(Y2O3)0.1,0.001629943,400,23.35721469,1.9,1.7,https://doi.org/10.1002/adfm.201001540,H
(BaO)1(ZrO2)0.7(Pr2O3)0.05(Y2O3)0.1,0.010232144,599.5360658,20,3,,https://doi.org/10.1002/adma.201103102,H
(BaO)1(ZrO2)0.7(Pr2O3)0.05(Y2O3)0.1,0.006044819,537.3864099,20,3,,https://doi.org/10.1002/adma.201103102,H
(BaO)1(ZrO2)0.7(Pr2O3)0.05(Y2O3)0.1,0.003714147,480.4437956,20,3,,https://doi.org/10.1002/adma.201103102,H
(BaO)1(ZrO2)0.7(Pr2O3)0.05(Y2O3)0.1,0.002378345,438.4963456,20,3,,https://doi.org/10.1002/adma.201103102,H
(BaO)1(ZrO2)0.7(Pr2O3)0.05(Y2O3)0.1,0.001297368,396.1426752,20,3,,https://doi.org/10.1002/adma.201103102,H
(BaO)1(ZrO2)0.7(Pr2O3)0.05(Y2O3)0.1,0.000864971,365.0235034,20,3,,https://doi.org/10.1002/adma.201103102,H
(BaO)1(ZrO2)0.7(Pr2O3)0.05(Y2O3)0.1,0.000625085,340.2764748,20,3,,https://doi.org/10.1002/adma.201103102,H
(BaO)1(CeO2)0.85(Y2O3)0.025(SnO2)0.1,0.000207014,500,0,3,,https://doi.org/10.1016/j.jallcom.2008.12.120,H
(BaO)1(CeO2)0.85(Y2O3)0.025(SnO2)0.1,0.000409911,550,0,3,,https://doi.org/10.1016/j.jallcom.2008.12.120,H
(BaO)1(CeO2)0.85(Y2O3)0.025(SnO2)0.1,0.000653388,600,0,3,,https://doi.org/10.1016/j.jallcom.2008.12.120,H
(BaO)1(CeO2)0.85(Y2O3)0.025(SnO2)0.1,0.000734742,650,0,3,,https://doi.org/10.1016/j.jallcom.2008.12.120,H
(BaO)1(CeO2)0.85(Y2O3)0.025(SnO2)0.1,0.000856285,700,0,3,,https://doi.org/10.1016/j.jallcom.2008.12.120,H
(BaO)1(CeO2)0.85(Y2O3)0.025(SnO2)0.1,0.000978023,800,0,3,,https://doi.org/10.1016/j.jallcom.2008.12.120,H
(BaO)1(CeO2)0.82(Er2O3)0.045(YbO)0.09,0.001050915,698.9935235,20,0,,https://doi.org/10.1016/j.ijhydene.2014.03.249,H
(BaO)1(CeO2)0.82(Er2O3)0.045(YbO)0.09,0.001018485,674.677478,20,0,,https://doi.org/10.1016/j.ijhydene.2014.03.249,H
(BaO)1(CeO2)0.82(Er2O3)0.045(YbO)0.09,0.000989591,648.6041616,20,0,,https://doi.org/10.1016/j.ijhydene.2014.03.249,H
(BaO)1(CeO2)0.82(Er2O3)0.045(YbO)0.09,0.000954988,623.003397,20,0,,https://doi.org/10.1016/j.ijhydene.2014.03.249,H
(BaO)1(CeO2)0.82(Er2O3)0.045(YbO)0.09,0.000928364,597.911107,20,0,,https://doi.org/10.1016/j.ijhydene.2014.03.249,H
(BaO)1(CeO2)0.82(Er2O3)0.045(YbO)0.09,0.000869542,575.0117087,20,0,,https://doi.org/10.1016/j.ijhydene.2014.03.249,H
(BaO)1(CeO2)0.82(Er2O3)0.045(YbO)0.09,0.000852431,550.1800515,20,0,,https://doi.org/10.1016/j.ijhydene.2014.03.249,H
(BaO)1(CeO2)0.82(Er2O3)0.045(YbO)0.09,0.00081461,523.8155559,20,0,,https://doi.org/10.1016/j.ijhydene.2014.03.249,H
(BaO)1(CeO2)0.82(Er2O3)0.045(YbO)0.09,0.000776973,499.779574,20,0,,https://doi.org/10.1016/j.ijhydene.2014.03.249,H
(BaO)1(CeO2)0.82(Er2O3)0.045(YbO)0.09,0.00070639,475.2256929,20,0,,https://doi.org/10.1016/j.ijhydene.2014.03.249,H
(BaO)1(CeO2)0.82(Er2O3)0.045(YbO)0.09,0.000672221,449.1742617,20,0,,https://doi.org/10.1016/j.ijhydene.2014.03.249,H
(BaO)1(CeO2)0.82(Er2O3)0.045(YbO)0.09,0.000608018,424.8724455,20,0,,https://doi.org/10.1016/j.ijhydene.2014.03.249,H
(BaO)1(CeO2)0.82(Er2O3)0.045(YbO)0.09,0.000558891,400.0652498,20,0,,https://doi.org/10.1016/j.ijhydene.2014.03.249,H
(BaO)1(CeO2)0.82(Er2O3)0.045(YbO)0.09,0.000972123,698.9935235,20,1.9,,https://doi.org/10.1016/j.ijhydene.2014.03.249,H
(BaO)1(CeO2)0.82(Er2O3)0.045(YbO)0.09,0.000962364,674.677478,20,1.9,,https://doi.org/10.1016/j.ijhydene.2014.03.249,H
(BaO)1(CeO2)0.82(Er2O3)0.045(YbO)0.09,0.00094171,648.6041616,20,1.9,,https://doi.org/10.1016/j.ijhydene.2014.03.249,H
(BaO)1(CeO2)0.82(Er2O3)0.045(YbO)0.09,0.000915243,623.003397,20,1.9,,https://doi.org/10.1016/j.ijhydene.2014.03.249,H
(BaO)1(CeO2)0.82(Er2O3)0.045(YbO)0.09,0.000883446,597.911107,20,1.9,,https://doi.org/10.1016/j.ijhydene.2014.03.249,H
(BaO)1(CeO2)0.82(Er2O3)0.045(YbO)0.09,0.000839278,575.0117087,20,1.9,,https://doi.org/10.1016/j.ijhydene.2014.03.249,H
(BaO)1(CeO2)0.82(Er2O3)0.045(YbO)0.09,0.000805459,550.1800515,20,1.9,,https://doi.org/10.1016/j.ijhydene.2014.03.249,H
(BaO)1(CeO2)0.82(Er2O3)0.045(YbO)0.09,0.000786258,523.8155559,20,1.9,,https://doi.org/10.1016/j.ijhydene.2014.03.249,H
(BaO)1(CeO2)0.82(Er2O3)0.045(YbO)0.09,0.000744637,499.779574,20,1.9,,https://doi.org/10.1016/j.ijhydene.2014.03.249,H
(BaO)1(CeO2)0.82(Er2O3)0.045(YbO)0.09,0.000604438,475.2256929,20,1.9,,https://doi.org/10.1016/j.ijhydene.2014.03.249,H
(BaO)1(CeO2)0.82(Er2O3)0.045(YbO)0.09,0.000575201,449.1742617,20,1.9,,https://doi.org/10.1016/j.ijhydene.2014.03.249,H
(BaO)1(CeO2)0.82(Er2O3)0.045(YbO)0.09,0.000527689,424.8724455,20,1.9,,https://doi.org/10.1016/j.ijhydene.2014.03.249,H
(BaO)1(CeO2)0.82(Er2O3)0.045(YbO)0.09,0.000516989,400.0652498,20,1.9,,https://doi.org/10.1016/j.ijhydene.2014.03.249,H
(BaO)1(CeO2)0.8(Y2O3)0.025(Nd2O3)0.075,0.077858272,802.168626,20,3,1.5,https://doi.org/10.1016/j.ssi.2006.02.047,H
(BaO)1(CeO2)0.8(Y2O3)0.025(Nd2O3)0.075,0.070432539,752.7132028,20,3,1.5,https://doi.org/10.1016/j.ssi.2006.02.047,H
(BaO)1(CeO2)0.8(Y2O3)0.025(Nd2O3)0.075,0.060475901,700.6705787,20,3,1.5,https://doi.org/10.1016/j.ssi.2006.02.047,H
(BaO)1(CeO2)0.8(Y2O3)0.025(Nd2O3)0.075,0.049127446,650.5359376,20,3,1.5,https://doi.org/10.1016/j.ssi.2006.02.047,H
(BaO)1(CeO2)0.8(Y2O3)0.025(Nd2O3)0.075,0.040108321,600.6618504,20,3,1.5,https://doi.org/10.1016/j.ssi.2006.02.047,H
(BaO)1(CeO2)0.8(Y2O3)0.025(Nd2O3)0.075,0.03280078,550.9219,20,3,1.5,https://doi.org/10.1016/j.ssi.2006.02.047,H
(BaO)1(CeO2)0.8(Y2O3)0.025(Nd2O3)0.075,0.024087064,500.6799807,20,3,1.5,https://doi.org/10.1016/j.ssi.2006.02.047,H
(BaO)1(CeO2)0.8(Y2O3)0.025(Nd2O3)0.075,0.016846649,449.8257371,20,3,1.5,https://doi.org/10.1016/j.ssi.2006.02.047,H
(BaO)1(CeO2)0.8(Y2O3)0.025(Nd2O3)0.075,0.010978026,400.2549706,20,3,1.5,https://doi.org/10.1016/j.ssi.2006.02.047,H
(SrO)0.85(Y2O3)0.05(TiO2)0.95(CoO2)0.05,43.51638009,800,1.48198E-12,0,,https://doi.org/10.1016/S0025-5408(02)00774-2,E
(SrO)0.85(Y2O3)0.05(TiO2)0.95(CoO2)0.05,43.75117996,800,3.32611E-13,0,,https://doi.org/10.1016/S0025-5408(02)00774-2,E
(SrO)0.85(Y2O3)0.05(TiO2)0.95(CoO2)0.05,44.18164639,800,3.02984E-14,0,,https://doi.org/10.1016/S0025-5408(02)00774-2,E
(SrO)0.85(Y2O3)0.05(TiO2)0.95(CoO2)0.05,44.51427953,800,2.82073E-15,0,,https://doi.org/10.1016/S0025-5408(02)00774-2,E
(SrO)0.85(Y2O3)0.05(TiO2)0.95(CoO2)0.05,44.63167947,800,5.62829E-16,0,,https://doi.org/10.1016/S0025-5408(02)00774-2,E
(SrO)0.85(Y2O3)0.05(TiO2)0.95(CoO2)0.05,44.94474596,800,2.91017E-17,0,,https://doi.org/10.1016/S0025-5408(02)00774-2,E
(SrO)0.85(Y2O3)0.05(TiO2)0.95(CoO2)0.05,45.17954583,800,5.93463E-18,0,,https://doi.org/10.1016/S0025-5408(02)00774-2,E
(SrO)0.85(Y2O3)0.05(TiO2)0.95(CuO)0.05,29.78058768,800,1.48198E-12,0,,https://doi.org/10.1016/S0025-5408(02)00774-2,E
(SrO)0.85(Y2O3)0.05(TiO2)0.95(CuO)0.05,31.65898664,800,3.41419E-13,0,,https://doi.org/10.1016/S0025-5408(02)00774-2,E
(SrO)0.85(Y2O3)0.05(TiO2)0.95(CuO)0.05,33.08735252,800,3.02984E-14,0,,https://doi.org/10.1016/S0025-5408(02)00774-2,E
(SrO)0.85(Y2O3)0.05(TiO2)0.95(CuO)0.05,34.06568531,800,2.89542E-15,0,,https://doi.org/10.1016/S0025-5408(02)00774-2,E
(SrO)0.85(Y2O3)0.05(TiO2)0.95(CuO)0.05,35.16141804,800,5.62829E-16,0,,https://doi.org/10.1016/S0025-5408(02)00774-2,E
(SrO)0.85(Y2O3)0.05(TiO2)0.95(CuO)0.05,36.15931749,800,2.98724E-17,0,,https://doi.org/10.1016/S0025-5408(02)00774-2,E
(SrO)0.85(Y2O3)0.05(TiO2)0.95(CuO)0.05,36.49195064,800,5.93463E-18,0,,https://doi.org/10.1016/S0025-5408(02)00774-2,E
(SrO)0.85(Y2O3)0.05(TiO2)0.95(NiO)0.05,5.596201044,800,1.52122E-12,0,,https://doi.org/10.1016/S0025-5408(02)00774-2,E
(SrO)0.85(Y2O3)0.05(TiO2)0.95(NiO)0.05,7.024566922,800,3.67662E-13,0,,https://doi.org/10.1016/S0025-5408(02)00774-2,E
(SrO)0.85(Y2O3)0.05(TiO2)0.95(NiO)0.05,9.881298676,800,3.17855E-14,0,,https://doi.org/10.1016/S0025-5408(02)00774-2,E
(SrO)0.85(Y2O3)0.05(TiO2)0.95(NiO)0.05,14.06856303,800,2.9721E-15,0,,https://doi.org/10.1016/S0025-5408(02)00774-2,E
(SrO)0.85(Y2O3)0.05(TiO2)0.95(NiO)0.05,16.04479527,800,5.75223E-16,0,,https://doi.org/10.1016/S0025-5408(02)00774-2,E
(SrO)0.85(Y2O3)0.05(TiO2)0.95(NiO)0.05,17.8057943,800,2.98724E-17,0,,https://doi.org/10.1016/S0025-5408(02)00774-2,E
(SrO)0.85(Y2O3)0.05(TiO2)0.95(NiO)0.05,19.01892696,800,6.3908E-18,0,,https://doi.org/10.1016/S0025-5408(02)00774-2,E
(SrO)0.85(Y2O3)0.05(TiO2)0.95(MoO2)0.05,7.357200071,800,1.52122E-12,0,,https://doi.org/10.1016/S0025-5408(02)00774-2,E
(SrO)0.85(Y2O3)0.05(TiO2)0.95(MoO2)0.05,8.452932799,800,3.58177E-13,0,,https://doi.org/10.1016/S0025-5408(02)00774-2,E
(SrO)0.85(Y2O3)0.05(TiO2)0.95(MoO2)0.05,9.998698611,800,3.17855E-14,0,,https://doi.org/10.1016/S0025-5408(02)00774-2,E
(SrO)0.85(Y2O3)0.05(TiO2)0.95(MoO2)0.05,11.21183127,800,2.9721E-15,0,,https://doi.org/10.1016/S0025-5408(02)00774-2,E
(SrO)0.85(Y2O3)0.05(TiO2)0.95(MoO2)0.05,12.73803043,800,5.62829E-16,0,,https://doi.org/10.1016/S0025-5408(02)00774-2,E
(SrO)0.85(Y2O3)0.05(TiO2)0.95(MoO2)0.05,14.83166261,800,2.91017E-17,0,,https://doi.org/10.1016/S0025-5408(02)00774-2,E
(SrO)0.85(Y2O3)0.05(TiO2)0.95(MoO2)0.05,16.1621952,800,6.22593E-18,0,,https://doi.org/10.1016/S0025-5408(02)00774-2,E
(SrO)0.85(Y2O3)0.05(TiO2)0.95(ZnO)0.05,0.09797075,800,1.48198E-12,0,,https://doi.org/10.1016/S0025-5408(02)00774-2,E
(SrO)0.85(Y2O3)0.05(TiO2)0.95(ZnO)0.05,0.430603899,800,3.67662E-13,0,,https://doi.org/10.1016/S0025-5408(02)00774-2,E
(SrO)0.85(Y2O3)0.05(TiO2)0.95(ZnO)0.05,1.428503348,800,3.17855E-14,0,,https://doi.org/10.1016/S0025-5408(02)00774-2,E
(SrO)0.85(Y2O3)0.05(TiO2)0.95(ZnO)0.05,1.976369712,800,3.03754E-15,0,,https://doi.org/10.1016/S0025-5408(02)00774-2,E
(SrO)0.85(Y2O3)0.05(TiO2)0.95(ZnO)0.05,2.40683614,800,5.62829E-16,0,,https://doi.org/10.1016/S0025-5408(02)00774-2,E
(SrO)0.85(Y2O3)0.05(TiO2)0.95(ZnO)0.05,3.287335654,800,2.91017E-17,0,,https://doi.org/10.1016/S0025-5408(02)00774-2,E
(SrO)0.85(Y2O3)0.05(TiO2)0.95(ZnO)0.05,4.070001888,800,6.22593E-18,0,,https://doi.org/10.1016/S0025-5408(02)00774-2,E
(BaO)0.9(CaO)0.1(CeO2)0.9(Nd2O3)0.05,0.016852656,1007.139646,20,1.9,,https://doi.org/10.1016/0167-2738(91)90189-I,O+H
(BaO)0.9(CaO)0.1(CeO2)0.9(Nd2O3)0.05,0.012257417,960.9214391,20,1.9,,https://doi.org/10.1016/0167-2738(91)90189-I,O+H
(BaO)0.9(CaO)0.1(CeO2)0.9(Nd2O3)0.05,0.009506887,912.8848421,20,1.9,,https://doi.org/10.1016/0167-2738(91)90189-I,O+H
(BaO)0.9(CaO)0.1(CeO2)0.9(Nd2O3)0.05,0.006625948,858.9312215,20,1.9,,https://doi.org/10.1016/0167-2738(91)90189-I,O+H