Composition,Conductivity (S/cm),Temperature (degC),PO2 (%),PH2O (%),Grainsize,Ref,Carrier Type
(La2O3)0.425(SrO)0.15(Ga2O3)0.45(MgO)0.1,0.068,702,1.00E-03,0,,https://doi.org/10.1111/j.1151-2916.1998.tb02662.x,O
(La2O3)0.425(SrO)0.15(Ga2O3)0.45(MgO)0.1,0.026,595,1.00E-03,0,,https://doi.org/10.1111/j.1151-2916.1998.tb02662.x,O
(La2O3)0.45(SrO)0.1(Ga2O3)0.45(MgO)0.1,0.485566971,932.5547269,0.01,0,,https://doi.org/10.1021/ja00088a016,O
(La2O3)0.45(SrO)0.1(Ga2O3)0.45(MgO)0.1,0.381700024,878.6719187,0.01,0,,https://doi.org/10.1021/ja00088a016,O
(La2O3)0.45(SrO)0.1(Ga2O3)0.45(MgO)0.1,0.312233461,823.8515904,0.01,0,,https://doi.org/10.1021/ja00088a016,O
(La2O3)0.45(SrO)0.1(Ga2O3)0.45(MgO)0.1,0.245412016,774.0275856,0.01,0,,https://doi.org/10.1021/ja00088a016,O
(La2O3)0.45(SrO)0.1(Ga2O3)0.45(MgO)0.1,0.171104423,726.283644,0.01,0,,https://doi.org/10.1021/ja00088a016,O
(La2O3)0.45(SrO)0.1(Ga2O3)0.45(MgO)0.1,0.110111216,674.4426467,0.01,0,,https://doi.org/10.1021/ja00088a016,O
(La2O3)0.45(SrO)0.1(Ga2O3)0.45(MgO)0.1,0.069445873,622.1870916,0.01,0,,https://doi.org/10.1021/ja00088a016,O
(La2O3)0.45(SrO)0.1(Ga2O3)0.45(MgO)0.1,0.039627419,568.882537,0.01,0,,https://doi.org/10.1021/ja00088a016,O
(La2O3)0.45(SrO)0.1(Ga2O3)0.45(MgO)0.1,0.019657973,515.8629189,0.01,0,,https://doi.org/10.1021/ja00088a016,O
(La2O3)0.45(SrO)0.1(Ga2O3)0.45(MgO)0.1,0.281838293,900,1.00E-17,0,,https://doi.org/10.1021/ja00088a016,O
(La2O3)0.45(SrO)0.1(Ga2O3)0.45(MgO)0.1,0.281838293,900,1.00E-12,0,,https://doi.org/10.1021/ja00088a016,O
(La2O3)0.45(SrO)0.1(Ga2O3)0.45(MgO)0.1,0.281838293,900,1.00E-07,0,,https://doi.org/10.1021/ja00088a016,O
(La2O3)0.45(SrO)0.1(Ga2O3)0.45(MgO)0.1,0.281838293,900,2.00E+01,0,,https://doi.org/10.1021/ja00088a016,O
(La2O3)0.45(SrO)0.1(Ga2O3)0.45(MgO)0.1,0.195677589,1000,1.00E-02,0,,https://doi.org/10.1021/ja00088a016,O
(Nd2O3)0.45(CaO)0.1(Al2O3)0.45(CoO)0.1,0.020214378,961.0516525,1.00E-03,0,,10.1149/1.2059351,O
(Nd2O3)0.45(CaO)0.1(Al2O3)0.45(CoO)0.1,0.016409462,906.6413079,1.00E-03,0,,10.1149/1.2059351,O
(Nd2O3)0.45(CaO)0.1(Al2O3)0.45(CoO)0.1,0.041941263,852.232889,1.00E-03,0,,10.1149/1.2059351,O
(Nd2O3)0.45(CaO)0.1(Al2O3)0.45(CoO)0.1,0.075726046,802.696386,1.00E-03,0,,10.1149/1.2059351,O
(Nd2O3)0.45(CaO)0.1(Al2O3)0.45(CoO)0.1,0.093284894,752.0236817,1.00E-03,0,,10.1149/1.2059351,O
(Nd2O3)0.45(CaO)0.1(Al2O3)0.45(CoO)0.1,0.075726046,697.9016138,1.00E-03,0,,10.1149/1.2059351,O
(Nd2O3)0.45(CaO)0.1(Al2O3)0.45(CoO)0.1,0.063646362,650.6514523,1.00E-03,0,,10.1149/1.2059351,O
(Nd2O3)0.45(CaO)0.1(Al2O3)0.45(CoO)0.1,0.053493607,598.6471345,1.00E-03,0,,10.1149/1.2059351,O
(Nd2O3)0.45(CaO)0.1(Al2O3)0.45(CoO)0.1,0.040508594,547.5933002,1.00E-03,0,,10.1149/1.2059351,O
(Nd2O3)0.45(CaO)0.1(Al2O3)0.45(CoO)0.1,0.032883734,496.097882,1.00E-03,0,,10.1149/1.2059351,O
(Nd2O3)0.45(CaO)0.1(Al2O3)0.45(CuO)0.1,0.008478165,861.2922866,1.00E-03,0,,10.1149/1.2059351,O
(Nd2O3)0.45(CaO)0.1(Al2O3)0.45(CuO)0.1,0.006200873,813.1715624,1.00E-03,0,,10.1149/1.2059351,O
(Nd2O3)0.45(CaO)0.1(Al2O3)0.45(CuO)0.1,0.004380356,768.9745491,1.00E-03,0,,10.1149/1.2059351,O
(Nd2O3)0.45(CaO)0.1(Al2O3)0.45(CuO)0.1,0.002886539,713.1338768,1.00E-03,0,,10.1149/1.2059351,O
(Nd2O3)0.45(CaO)0.1(Al2O3)0.45(CuO)0.1,0.002343211,662.9401748,1.00E-03,0,,10.1149/1.2059351,O
(Nd2O3)0.45(CaO)0.1(Al2O3)0.45(CuO)0.1,0.002185862,612.2252262,1.00E-03,0,,10.1149/1.2059351,O
(Nd2O3)0.45(CaO)0.1(Al2O3)0.45(CuO)0.1,0.002600724,559.5585869,1.00E-03,0,,10.1149/1.2059351,O
(Nd2O3)0.45(CaO)0.1(Al2O3)0.45(CuO)0.1,0.002787937,507.6026601,1.00E-03,0,,10.1149/1.2059351,O
(Nd2O3)0.45(CaO)0.1(Al2O3)0.45(Ga2O3)0.1,0.01200177,971.6482203,1.00E-03,0,,10.1149/1.2059351,O
(Nd2O3)0.45(CaO)0.1(Al2O3)0.45(Ga2O3)0.1,0.009409898,930.9405061,1.00E-03,0,,10.1149/1.2059351,O
(Nd2O3)0.45(CaO)0.1(Al2O3)0.45(Ga2O3)0.1,0.006647242,879.1313172,1.00E-03,0,,10.1149/1.2059351,O
(Nd2O3)0.45(CaO)0.1(Al2O3)0.45(Ga2O3)0.1,0.004086211,817.2908002,1.00E-03,0,,10.1149/1.2059351,O
(Nd2O3)0.45(CaO)0.1(Al2O3)0.45(Ga2O3)0.1,0.002886539,769.0581685,1.00E-03,0,,10.1149/1.2059351,O
(Nd2O3)0.45(CaO)0.1(Al2O3)0.45(Ga2O3)0.1,0.001440425,716.5783718,1.00E-03,0,,10.1149/1.2059351,O
(Nd2O3)0.45(CaO)0.1(Al2O3)0.45(Ga2O3)0.1,0.000826002,669.1082862,1.00E-03,0,,10.1149/1.2059351,O
(Nd2O3)0.45(CaO)0.1(Al2O3)0.45(Ga2O3)0.1,0.000346436,615.1668947,1.00E-03,0,,10.1149/1.2059351,O
(Nd2O3)0.45(CaO)0.1(Al2O3)0.45(Ga2O3)0.1,0.000155759,564.6653747,1.00E-03,0,,10.1149/1.2059351,O
(Nd2O3)0.45(CaO)0.1(Al2O3)0.45(Ga2O3)0.1,5.68482E-05,513.2628546,1.00E-03,0,,10.1149/1.2059351,O
(Nd2O3)0.45(CaO)0.1(Al2O3)0.45(NiO)0.1,0.004695676,909.3355338,1.00E-03,0,,10.1149/1.2059351,O
(Nd2O3)0.45(CaO)0.1(Al2O3)0.45(NiO)0.1,0.002886539,844.3016112,1.00E-03,0,,10.1149/1.2059351,O
(Nd2O3)0.45(CaO)0.1(Al2O3)0.45(NiO)0.1,0.001774421,801.5317629,1.00E-03,0,,10.1149/1.2059351,O
(Nd2O3)0.45(CaO)0.1(Al2O3)0.45(NiO)0.1,0.00101753,751.1142023,1.00E-03,0,,10.1149/1.2059351,O
(Nd2O3)0.45(CaO)0.1(Al2O3)0.45(NiO)0.1,0.000770535,700.309264,1.00E-03,0,,10.1149/1.2059351,O
(Nd2O3)0.45(CaO)0.1(Al2O3)0.45(NiO)0.1,0.000457486,648.5319833,1.00E-03,0,,10.1149/1.2059351,O
(Nd2O3)0.45(CaO)0.1(Al2O3)0.45(NiO)0.1,0.000312133,596.7884977,1.00E-03,0,,10.1149/1.2059351,O
(Nd2O3)0.45(CaO)0.1(Al2O3)0.45(NiO)0.1,0.000178991,544.8411345,1.00E-03,0,,10.1149/1.2059351,O
(Nd2O3)0.45(CaO)0.1(Al2O3)0.45(NiO)0.1,0.000102641,495.7222496,1.00E-03,0,,10.1149/1.2059351,O
(Nd2O3)0.45(CaO)0.1(Al2O3)0.45(BeO)0.1,0.006200873,956.2230383,1.00E-03,0,,10.1149/1.2059351,O
(Nd2O3)0.45(CaO)0.1(Al2O3)0.45(BeO)0.1,0.00355585,902.3169856,1.00E-03,0,,10.1149/1.2059351,O
(Nd2O3)0.45(CaO)0.1(Al2O3)0.45(BeO)0.1,0.002511886,852.8914572,1.00E-03,0,,10.1149/1.2059351,O
(Nd2O3)0.45(CaO)0.1(Al2O3)0.45(BeO)0.1,0.001491368,799.6086238,1.00E-03,0,,10.1149/1.2059351,O
(Nd2O3)0.45(CaO)0.1(Al2O3)0.45(BeO)0.1,0.000826002,745.8309141,1.00E-03,0,,10.1149/1.2059351,O
(Nd2O3)0.45(CaO)0.1(Al2O3)0.45(BeO)0.1,0.000412187,694.0152357,1.00E-03,0,,10.1149/1.2059351,O
(Nd2O3)0.45(CaO)0.1(Al2O3)0.45(BeO)0.1,0.000253381,644.3112924,1.00E-03,0,,10.1149/1.2059351,O
(Nd2O3)0.45(CaO)0.1(Al2O3)0.45(BeO)0.1,0.000178991,593.0226982,1.00E-03,0,,10.1149/1.2059351,O
(Nd2O3)0.45(CaO)0.1(Al2O3)0.45(BeO)0.1,8.04749E-05,542.6705909,1.00E-03,0,,10.1149/1.2059351,O
(Nd2O3)0.45(CaO)0.1(Al2O3)0.45(BeO)0.1,2.93714E-05,496.8654638,1.00E-03,0,,10.1149/1.2059351,O
(Nd2O3)0.45(CaO)0.1(Al2O3)0.45(ZrO2)0.1,0.004535277,964.0692051,1.00E-03,0,,10.1149/1.2059351,O
(Nd2O3)0.45(CaO)0.1(Al2O3)0.45(ZrO2)0.1,0.002343211,907.1416291,1.00E-03,0,,10.1149/1.2059351,O
(Nd2O3)0.45(CaO)0.1(Al2O3)0.45(ZrO2)0.1,0.001774421,861.6639772,1.00E-03,0,,10.1149/1.2059351,O
(Nd2O3)0.45(CaO)0.1(Al2O3)0.45(ZrO2)0.1,0.001090777,817.5807752,1.00E-03,0,,10.1149/1.2059351,O
(Nd2O3)0.45(CaO)0.1(Al2O3)0.45(ZrO2)0.1,0.000625499,765.6822827,1.00E-03,0,,10.1149/1.2059351,O
(Nd2O3)0.45(CaO)0.1(Al2O3)0.45(ZrO2)0.1,0.000346436,718.5052019,1.00E-03,0,,10.1149/1.2059351,O
(Nd2O3)0.45(CaO)0.1(Al2O3)0.45(ZrO2)0.1,0.000191875,667.8397638,1.00E-03,0,,10.1149/1.2059351,O
(Nd2O3)0.45(CaO)0.1(Al2O3)0.45(ZrO2)0.1,8.3321E-05,618.0670273,1.00E-03,0,,10.1149/1.2059351,O
(Nd2O3)0.45(CaO)0.1(Al2O3)0.45(ZrO2)0.1,3.87864E-05,567.2400686,1.00E-03,0,,10.1149/1.2059351,O
(Nd2O3)0.45(CaO)0.1(Al2O3)0.45(ZrO2)0.1,1.68428E-05,508.1779333,1.00E-03,0,,10.1149/1.2059351,O
(Nd2O3)0.45(CaO)0.1(Al2O3)0.45(MgO)0.1,0.003317071,964.1576022,1.00E-03,0,,10.1149/1.2059351,O
(Nd2O3)0.45(CaO)0.1(Al2O3)0.45(MgO)0.1,0.002039079,907.1773826,1.00E-03,0,,10.1149/1.2059351,O
(Nd2O3)0.45(CaO)0.1(Al2O3)0.45(MgO)0.1,0.001297799,855.2066134,1.00E-03,0,,10.1149/1.2059351,O
(Nd2O3)0.45(CaO)0.1(Al2O3)0.45(MgO)0.1,0.000770535,803.677515,1.00E-03,0,,10.1149/1.2059351,O
(Nd2O3)0.45(CaO)0.1(Al2O3)0.45(MgO)0.1,0.000412187,753.0766495,1.00E-03,0,,10.1149/1.2059351,O
(Nd2O3)0.45(CaO)0.1(Al2O3)0.45(MgO)0.1,0.000228292,697.309114,1.00E-03,0,,10.1149/1.2059351,O
(Nd2O3)0.45(CaO)0.1(Al2O3)0.45(MgO)0.1,5.12193E-05,599.6234144,1.00E-03,0,,10.1149/1.2059351,O
(Nd2O3)0.45(CaO)0.1(Al2O3)0.45(MgO)0.1,2.07482E-05,546.2472095,1.00E-03,0,,10.1149/1.2059351,O
(Nd2O3)0.45(CaO)0.1(Al2O3)0.45(MgO)0.1,8.70207E-06,499.0205714,1.00E-03,0,,10.1149/1.2059351,O
(Nd2O3)0.45(CaO)0.1(Al2O3)0.45(SiO2)0.1,0.000885462,956.7663113,1.00E-03,0,,10.1149/1.2059351,O
(Nd2O3)0.45(CaO)0.1(Al2O3)0.45(SiO2)0.1,0.000412187,907.5887033,1.00E-03,0,,10.1149/1.2059351,O
(Nd2O3)0.45(CaO)0.1(Al2O3)0.45(SiO2)0.1,0.000228292,862.1516741,1.00E-03,0,,10.1149/1.2059351,O
(Nd2O3)0.45(CaO)0.1(Al2O3)0.45(SiO2)0.1,0.00011003,808.0548298,1.00E-03,0,,10.1149/1.2059351,O
(Nd2O3)0.45(CaO)0.1(Al2O3)0.45(SiO2)0.1,7.25066E-05,755.2094427,1.00E-03,0,,10.1149/1.2059351,O
(Nd2O3)0.45(CaO)0.1(Al2O3)0.45(SiO2)0.1,5.49064E-05,704.0075304,1.00E-03,0,,10.1149/1.2059351,O
(Nd2O3)0.45(CaO)0.1(Al2O3)0.45(SiO2)0.1,2.55592E-05,654.8037453,1.00E-03,0,,10.1149/1.2059351,O
(Nd2O3)0.45(CaO)0.1(Al2O3)0.45(SiO2)0.1,1.23187E-05,603.7280523,1.00E-03,0,,10.1149/1.2059351,O
(Nd2O3)0.45(CaO)0.1(Al2O3)0.45(SiO2)0.1,4.49604E-06,547.580336,1.00E-03,0,,10.1149/1.2059351,O
(Nd2O3)0.45(CaO)0.1(Al2O3)0.45(SiO2)0.1,2.57822E-06,497.131815,1.00E-03,0,,10.1149/1.2059351,O
(Nd2O3)0.45(CaO)0.1(Al2O3)0.45(ZnO)0.1,0.001837177,966.9337938,1.00E-03,0,,10.1149/1.2059351,O
(Nd2O3)0.45(CaO)0.1(Al2O3)0.45(ZnO)0.1,0.001297799,921.6821235,1.00E-03,0,,10.1149/1.2059351,O
(Nd2O3)0.45(CaO)0.1(Al2O3)0.45(ZnO)0.1,0.000718793,859.6926712,1.00E-03,0,,10.1149/1.2059351,O
(Nd2O3)0.45(CaO)0.1(Al2O3)0.45(ZnO)0.1,0.000412187,811.757562,1.00E-03,0,,10.1149/1.2059351,O
(Nd2O3)0.45(CaO)0.1(Al2O3)0.45(ZnO)0.1,0.000236366,764.0439389,1.00E-03,0,,10.1149/1.2059351,O
(Nd2O3)0.45(CaO)0.1(Al2O3)0.45(ZnO)0.1,0.000140336,712.0242432,1.00E-03,0,,10.1149/1.2059351,O
(Nd2O3)0.45(CaO)0.1(Al2O3)0.45(ZnO)0.1,0.000102641,663.4464076,1.00E-03,0,,10.1149/1.2059351,O
(Nd2O3)0.45(CaO)0.1(Al2O3)0.45(ZnO)0.1,9.91349E-05,607.3688261,1.00E-03,0,,10.1149/1.2059351,O
(Nd2O3)0.45(CaO)0.1(Al2O3)0.45(ZnO)0.1,4.94697E-05,560.0660166,1.00E-03,0,,10.1149/1.2059351,O
(Nd2O3)0.45(CaO)0.1(Al2O3)0.45(ZnO)0.1,2.1482E-05,510.2315464,1.00E-03,0,,10.1149/1.2059351,O
(La2O3)0.45(SrO)0.1(Ga2O3)0.45(MgO)0.1,0.174901743,999.5010756,2.00E+01,0,,https://doi.org/10.1016/S0167-2738(99)00337-9,O
(La2O3)0.45(SrO)0.1(Ga2O3)0.45(MgO)0.1,0.157150341,949.9028236,2.00E+01,0,,https://doi.org/10.1016/S0167-2738(99)00337-9,O
(La2O3)0.45(SrO)0.1(Ga2O3)0.45(MgO)0.1,0.108986418,857.3492492,2.00E+01,0,,https://doi.org/10.1016/S0167-2738(99)00337-9,O
(La2O3)0.45(SrO)0.1(Ga2O3)0.45(MgO)0.1,0.070734811,763.9251007,2.00E+01,0,,https://doi.org/10.1016/S0167-2738(99)00337-9,O
(La2O3)0.45(SrO)0.1(Ga2O3)0.45(MgO)0.1,0.036965117,670.3430424,2.00E+01,0,,https://doi.org/10.1016/S0167-2738(99)00337-9,O
(La2O3)0.45(SrO)0.1(Ga2O3)0.45(MgO)0.1,0.015560749,578.1530679,2.00E+01,0,,https://doi.org/10.1016/S0167-2738(99)00337-9,O
(La2O3)0.45(SrO)0.1(Ga2O3)0.45(MgO)0.1,0.004918898,485.4905735,2.00E+01,0,,https://doi.org/10.1016/S0167-2738(99)00337-9,O
(La2O3)0.45(SrO)0.1(Ga2O3)0.45(MgO)0.1,0.000699706,385.1516826,2.00E+01,0,,https://doi.org/10.1016/S0167-2738(99)00337-9,O
(La2O3)0.45(SrO)0.1(Ga2O3)0.45(MgO)0.1,4.1048E-05,289.4658152,2.00E+01,0,,https://doi.org/10.1016/S0167-2738(99)00337-9,O
(La2O3)0.45(SrO)0.1(Ga2O3)0.45(MgO)0.1,7.96853E-07,198.8401047,2.00E+01,0,,https://doi.org/10.1016/S0167-2738(99)00337-9,O
(La2O3)0.45(SrO)0.1(Sc2O3)0.45(MgO)0.1,0.038068658,1009.467587,2.00E+01,0,,https://doi.org/10.1016/S0167-2738(99)00337-9,O+H
(La2O3)0.45(SrO)0.1(Sc2O3)0.45(MgO)0.1,0.031718116,959.0848431,2.00E+01,0,,https://doi.org/10.1016/S0167-2738(99)00337-9,O+H
(La2O3)0.45(SrO)0.1(Sc2O3)0.45(MgO)0.1,0.022868319,903.5903182,2.00E+01,0,,https://doi.org/10.1016/S0167-2738(99)00337-9,O+H
(La2O3)0.45(SrO)0.1(Sc2O3)0.45(MgO)0.1,0.017605514,861.0282794,2.00E+01,0,,https://doi.org/10.1016/S0167-2738(99)00337-9,O+H
(La2O3)0.45(SrO)0.1(Sc2O3)0.45(MgO)0.1,0.009035987,773.9123878,2.00E+01,0,,https://doi.org/10.1016/S0167-2738(99)00337-9,O+H
(La2O3)0.45(SrO)0.1(Sc2O3)0.45(MgO)0.1,0.004075722,675.7030926,2.00E+01,0,,https://doi.org/10.1016/S0167-2738(99)00337-9,O+H
(La2O3)0.45(SrO)0.1(Sc2O3)0.45(MgO)0.1,0.001289211,626.6012723,2.00E+01,0,,https://doi.org/10.1016/S0167-2738(99)00337-9,O+H
(La2O3)0.45(SrO)0.1(Sc2O3)0.45(MgO)0.1,8.88266E-05,483.2653748,2.00E+01,0,,https://doi.org/10.1016/S0167-2738(99)00337-9,O+H
(La2O3)0.45(SrO)0.1(Sc2O3)0.45(MgO)0.1,2.88952E-05,429.0475159,2.00E+01,0,,https://doi.org/10.1016/S0167-2738(99)00337-9,O+H
(La2O3)0.45(SrO)0.1(Sc2O3)0.45(MgO)0.1,1.4698E-05,383.4869209,2.00E+01,0,,https://doi.org/10.1016/S0167-2738(99)00337-9,O+H
(La2O3)0.45(SrO)0.1(Sc2O3)0.45(MgO)0.1,7.52499E-07,281.3060713,2.00E+01,0,,https://doi.org/10.1016/S0167-2738(99)00337-9,O+H
(La2O3)0.45(SrO)0.1(Sc2O3)0.45(MgO)0.1,1.20127E-07,225.7456844,2.00E+01,0,,https://doi.org/10.1016/S0167-2738(99)00337-9,O+H
(La2O3)0.45(SrO)0.1(Sc2O3)0.45(MgO)0.1,2.60556E-08,175.784229,2.00E+01,0,,https://doi.org/10.1016/S0167-2738(99)00337-9,O+H
(La2O3)0.45(SrO)0.1(Al2O3)0.45(MgO)0.1,0.020217805,954.1509397,2.00E+01,0,,https://doi.org/10.1016/S0167-2738(99)00337-9,O+E
(La2O3)0.45(SrO)0.1(Al2O3)0.45(MgO)0.1,0.008386301,844.7158192,2.00E+01,0,,https://doi.org/10.1016/S0167-2738(99)00337-9,O+E
(La2O3)0.45(SrO)0.1(Al2O3)0.45(MgO)0.1,0.003247157,739.9459118,2.00E+01,0,,https://doi.org/10.1016/S0167-2738(99)00337-9,O+E
(La2O3)0.45(SrO)0.1(Al2O3)0.45(MgO)0.1,0.002031637,687.1997312,2.00E+01,0,,https://doi.org/10.1016/S0167-2738(99)00337-9,O+E
(La2O3)0.45(SrO)0.1(Al2O3)0.45(MgO)0.1,0.001175151,639.6639539,2.00E+01,0,,https://doi.org/10.1016/S0167-2738(99)00337-9,O+E
(La2O3)0.45(SrO)0.1(Al2O3)0.45(MgO)0.1,0.000313908,550.8767035,2.00E+01,0,,https://doi.org/10.1016/S0167-2738(99)00337-9,O+E
(La2O3)0.45(SrO)0.1(Al2O3)0.45(MgO)0.1,2.23954E-05,445.0823032,2.00E+01,0,,https://doi.org/10.1016/S0167-2738(99)00337-9,O+E
(La2O3)0.45(SrO)0.1(Al2O3)0.45(MgO)0.1,1.49712E-06,349.4842919,2.00E+01,0,,https://doi.org/10.1016/S0167-2738(99)00337-9,O+E
(La2O3)0.45(SrO)0.1(Al2O3)0.45(MgO)0.1,5.57803E-08,292.1403,2.00E+01,0,,https://doi.org/10.1016/S0167-2738(99)00337-9,O+E
(La2O3)0.45(SrO)0.1(Al2O3)0.45(MgO)0.1,1.46923E-08,247.1334962,2.00E+01,0,,https://doi.org/10.1016/S0167-2738(99)00337-9,O+E
(La2O3)0.45(SrO)0.1(In2O3)0.45(MgO)0.1,0.007251342,998.610411,2.00E+01,0,,https://doi.org/10.1016/S0167-2738(99)00337-9,O+E
(La2O3)0.45(SrO)0.1(In2O3)0.45(MgO)0.1,0.002855623,860.6239299,2.00E+01,0,,https://doi.org/10.1016/S0167-2738(99)00337-9,O+E
(La2O3)0.45(SrO)0.1(In2O3)0.45(MgO)0.1,0.001374202,763.1928766,2.00E+01,0,,https://doi.org/10.1016/S0167-2738(99)00337-9,O+E
(La2O3)0.45(SrO)0.1(In2O3)0.45(MgO)0.1,0.000488168,675.3729359,2.00E+01,0,,https://doi.org/10.1016/S0167-2738(99)00337-9,O+E
(La2O3)0.45(SrO)0.1(In2O3)0.45(MgO)0.1,0.000163789,582.2169985,2.00E+01,0,,https://doi.org/10.1016/S0167-2738(99)00337-9,O+E
(La2O3)0.45(SrO)0.1(In2O3)0.45(MgO)0.1,4.07874E-05,496.1563311,2.00E+01,0,,https://doi.org/10.1016/S0167-2738(99)00337-9,O+E
(La2O3)0.45(SrO)0.1(In2O3)0.45(MgO)0.1,1.0826E-05,384.8396059,2.00E+01,0,,https://doi.org/10.1016/S0167-2738(99)00337-9,O+E
(La2O3)0.45(SrO)0.1(In2O3)0.45(MgO)0.1,1.2534E-06,290.2837945,2.00E+01,0,,https://doi.org/10.1016/S0167-2738(99)00337-9,O+E
(La2O3)0.45(SrO)0.1(In2O3)0.45(MgO)0.1,2.4686E-07,240.4589167,2.00E+01,0,,https://doi.org/10.1016/S0167-2738(99)00337-9,O+E
(La2O3)0.45(SrO)0.1(Ga2O3)0.45(MgO)0.1,0.213016031,1000,3.92989E-18,0,,https://doi.org/10.1016/S0167-2738(99)00337-9,O
(La2O3)0.45(SrO)0.1(Ga2O3)0.45(MgO)0.1,0.228799306,1000,9.86804E-18,0,,https://doi.org/10.1016/S0167-2738(99)00337-9,O
(La2O3)0.45(SrO)0.1(Ga2O3)0.45(MgO)0.1,0.217171323,1000,2.11334E-16,0,,https://doi.org/10.1016/S0167-2738(99)00337-9,O
(La2O3)0.45(SrO)0.1(Ga2O3)0.45(MgO)0.1,0.221165441,1000,6.67219E-16,0,,https://doi.org/10.1016/S0167-2738(99)00337-9,O
(La2O3)0.45(SrO)0.1(Ga2O3)0.45(MgO)0.1,0.225213026,1000,1.67392E-15,0,,https://doi.org/10.1016/S0167-2738(99)00337-9,O
(La2O3)0.45(SrO)0.1(Ga2O3)0.45(MgO)0.1,0.225286331,1000,3.8886E-15,0,,https://doi.org/10.1016/S0167-2738(99)00337-9,O
(La2O3)0.45(SrO)0.1(Ga2O3)0.45(MgO)0.1,0.188705297,1000,1.93797E-14,0,,https://doi.org/10.1016/S0167-2738(99)00337-9,O
(La2O3)0.45(SrO)0.1(Ga2O3)0.45(MgO)0.1,0.169700461,1000,7.68391E-14,0,,https://doi.org/10.1016/S0167-2738(99)00337-9,O
(La2O3)0.45(SrO)0.1(Ga2O3)0.45(MgO)0.1,0.234494119,1000,4.44958E-10,0,,https://doi.org/10.1016/S0167-2738(99)00337-9,O
(La2O3)0.45(SrO)0.1(Ga2O3)0.45(MgO)0.1,0.226368675,1000,9.56847E-10,0,,https://doi.org/10.1016/S0167-2738(99)00337-9,O
(La2O3)0.45(SrO)0.1(Ga2O3)0.45(MgO)0.1,0.239075456,1000,2.58336E-08,0,,https://doi.org/10.1016/S0167-2738(99)00337-9,O
(La2O3)0.45(SrO)0.1(Ga2O3)0.45(MgO)0.1,0.253663542,1000,0.108370198,0,,https://doi.org/10.1016/S0167-2738(99)00337-9,O
(La2O3)0.45(SrO)0.1(Ga2O3)0.45(MgO)0.1,0.263313477,1000,10.76098139,0,,https://doi.org/10.1016/S0167-2738(99)00337-9,O
(La2O3)0.45(SrO)0.1(Ga2O3)0.45(MgO)0.1,0.268187956,1000,46.15980477,0,,https://doi.org/10.1016/S0167-2738(99)00337-9,O
(La2O3)0.45(SrO)0.1(Ga2O3)0.45(MgO)0.1,0.303824057,1000,99.52775569,0,,https://doi.org/10.1016/S0167-2738(99)00337-9,O
(La2O3)0.45(SrO)0.1(Al2O3)0.45(MgO)0.1,0.029598982,1000,4.10578E-18,0,,https://doi.org/10.1016/S0167-2738(99)00337-9,O+E
(La2O3)0.45(SrO)0.1(Al2O3)0.45(MgO)0.1,0.020772602,1000,2.0324E-16,0,,https://doi.org/10.1016/S0167-2738(99)00337-9,O+E
(La2O3)0.45(SrO)0.1(Al2O3)0.45(MgO)0.1,0.020412554,1000,4.37181E-16,0,,https://doi.org/10.1016/S0167-2738(99)00337-9,O+E
(La2O3)0.45(SrO)0.1(Al2O3)0.45(MgO)0.1,0.020059339,1000,1.01529E-15,0,,https://doi.org/10.1016/S0167-2738(99)00337-9,O+E
(La2O3)0.45(SrO)0.1(Al2O3)0.45(MgO)0.1,0.019365983,1000,2.74757E-15,0,,https://doi.org/10.1016/S0167-2738(99)00337-9,O+E
(La2O3)0.45(SrO)0.1(Al2O3)0.45(MgO)0.1,0.018047669,1000,1.37175E-14,0,,https://doi.org/10.1016/S0167-2738(99)00337-9,O+E
(La2O3)0.45(SrO)0.1(Al2O3)0.45(MgO)0.1,0.018708212,1000,3.71661E-14,0,,https://doi.org/10.1016/S0167-2738(99)00337-9,O+E
(La2O3)0.45(SrO)0.1(Al2O3)0.45(MgO)0.1,0.018072782,1000,5.02742E-13,0,,https://doi.org/10.1016/S0167-2738(99)00337-9,O+E
(La2O3)0.45(SrO)0.1(Al2O3)0.45(MgO)0.1,0.018452057,1000,1.15494E-09,0,,https://doi.org/10.1016/S0167-2738(99)00337-9,O+E
(La2O3)0.45(SrO)0.1(Al2O3)0.45(MgO)0.1,0.018466256,1000,8.46819E-09,0,,https://doi.org/10.1016/S0167-2738(99)00337-9,O+E
(La2O3)0.45(SrO)0.1(Al2O3)0.45(MgO)0.1,0.018493593,1000,3.90566E-07,0,,https://doi.org/10.1016/S0167-2738(99)00337-9,O+E
(La2O3)0.45(SrO)0.1(Al2O3)0.45(MgO)0.1,0.018197256,1000,2.64156E-05,0,,https://doi.org/10.1016/S0167-2738(99)00337-9,O+E
(La2O3)0.45(SrO)0.1(Al2O3)0.45(MgO)0.1,0.019596522,1000,0.056257845,0,,https://doi.org/10.1016/S0167-2738(99)00337-9,O+E
(La2O3)0.45(SrO)0.1(Al2O3)0.45(MgO)0.1,0.028013371,1000,4.818165374,0,,https://doi.org/10.1016/S0167-2738(99)00337-9,O+E
(La2O3)0.45(SrO)0.1(Al2O3)0.45(MgO)0.1,0.034088158,1000,28.16378299,0,,https://doi.org/10.1016/S0167-2738(99)00337-9,O+E
(La2O3)0.45(SrO)0.1(Al2O3)0.45(MgO)0.1,0.039316307,1000,89.10255218,0,,https://doi.org/10.1016/S0167-2738(99)00337-9,O+E
(La2O3)0.45(SrO)0.1(In2O3)0.45(MgO)0.1,0.009179434,1000,5.00931E-15,0,,https://doi.org/10.1016/S0167-2738(99)00337-9,O+E
(La2O3)0.45(SrO)0.1(In2O3)0.45(MgO)0.1,0.009527231,1000,3.39101E-13,0,,https://doi.org/10.1016/S0167-2738(99)00337-9,O+E
(La2O3)0.45(SrO)0.1(In2O3)0.45(MgO)0.1,0.009288984,1000,0.110736146,0,,https://doi.org/10.1016/S0167-2738(99)00337-9,O+E
(La2O3)0.45(SrO)0.1(In2O3)0.45(MgO)0.1,0.015574317,1000,2.217485544,0,,https://doi.org/10.1016/S0167-2738(99)00337-9,O+E
(La2O3)0.45(SrO)0.1(In2O3)0.45(MgO)0.1,0.017646923,1000,7.571981586,0,,https://doi.org/10.1016/S0167-2738(99)00337-9,O+E
(La2O3)0.45(SrO)0.1(In2O3)0.45(MgO)0.1,0.019641796,1000,22.1755115,0,,https://doi.org/10.1016/S0167-2738(99)00337-9,O+E
(La2O3)0.45(SrO)0.1(In2O3)0.45(MgO)0.1,0.021860885,1000,55.71621107,0,,https://doi.org/10.1016/S0167-2738(99)00337-9,O+E
(La2O3)0.45(SrO)0.1(In2O3)0.45(MgO)0.1,0.021866706,1000,111.0412472,0,,https://doi.org/10.1016/S0167-2738(99)00337-9,O+E