Composition,Conductivity (S/cm),Temperature (degC),PO2 (%),PH2O (%),Grainsize,Ref,Carrier Type
(SrO)1(Sc2O3)0.0875(NbO2)0.025(CoO2)0.8,30.85663212,625.3796095,20,3,,https://doi.org/10.1016/j.apenergy.2019.01.094,E
(SrO)1(Sc2O3)0.0875(NbO2)0.025(CoO2)0.8,30.57443561,649.2407809,20,3,,https://doi.org/10.1016/j.apenergy.2019.01.094,E
(SrO)1(Sc2O3)0.0875(NbO2)0.025(CoO2)0.8,30.38442998,675.2711497,20,3,,https://doi.org/10.1016/j.apenergy.2019.01.094,E
(SrO)1(Sc2O3)0.0875(NbO2)0.025(CoO2)0.8,30.19462521,700.2169197,20,3,,https://doi.org/10.1016/j.apenergy.2019.01.094,E
(SrO)1(Sc2O3)0.0875(NbO2)0.025(CoO2)0.8,30.00482044,725.1626898,20,3,,https://doi.org/10.1016/j.apenergy.2019.01.094,E
(SrO)1(Sc2O3)0.0875(NbO2)0.025(CoO2)0.8,29.90760826,750.1084599,20,3,,https://doi.org/10.1016/j.apenergy.2019.01.094,E
(SrO)1(Sc2O3)0.0875(NbO2)0.025(CoO2)0.8,29.99558126,775.0542299,20,3,,https://doi.org/10.1016/j.apenergy.2019.01.094,E
(SrO)1(Sc2O3)0.0875(NbO2)0.025(CoO2)0.8,30.08355427,800,20,3,,https://doi.org/10.1016/j.apenergy.2019.01.094,E
(BaO)1(In2O3)0.05(Y2O3)0.1(CeO2)0.7,0.012080629,799.555205,20,0,12.7,https://doi.org/10.1016/j.ijhydene.2010.02.080,H
(BaO)1(In2O3)0.05(Y2O3)0.1(CeO2)0.7,0.008866683,751.0963855,20,0,12.7,https://doi.org/10.1016/j.ijhydene.2010.02.080,H
(BaO)1(In2O3)0.05(Y2O3)0.1(CeO2)0.7,0.005295178,699.8183119,20,0,12.7,https://doi.org/10.1016/j.ijhydene.2010.02.080,H
(BaO)1(In2O3)0.05(Y2O3)0.1(CeO2)0.7,0.003505711,649.6594301,20,0,12.7,https://doi.org/10.1016/j.ijhydene.2010.02.080,H
(BaO)1(In2O3)0.05(Y2O3)0.1(CeO2)0.7,0.002573047,599.9139923,20,0,12.7,https://doi.org/10.1016/j.ijhydene.2010.02.080,H
(BaO)1(In2O3)0.05(Y2O3)0.1(CeO2)0.7,0.001459416,549.2490931,20,0,12.7,https://doi.org/10.1016/j.ijhydene.2010.02.080,H
(BaO)1(In2O3)0.05(Y2O3)0.1(CeO2)0.7,0.0131917,799.555205,20,1.9,12.7,https://doi.org/10.1016/j.ijhydene.2010.02.080,H
(BaO)1(In2O3)0.05(Y2O3)0.1(CeO2)0.7,0.010717048,751.0963855,20,1.9,12.7,https://doi.org/10.1016/j.ijhydene.2010.02.080,H
(BaO)1(In2O3)0.05(Y2O3)0.1(CeO2)0.7,0.008265959,699.8183119,20,1.9,12.7,https://doi.org/10.1016/j.ijhydene.2010.02.080,H
(BaO)1(In2O3)0.05(Y2O3)0.1(CeO2)0.7,0.007073332,649.6594301,20,1.9,12.7,https://doi.org/10.1016/j.ijhydene.2010.02.080,H
(BaO)1(In2O3)0.05(Y2O3)0.1(CeO2)0.7,0.006375456,599.9139923,20,1.9,12.7,https://doi.org/10.1016/j.ijhydene.2010.02.080,H
(BaO)1(In2O3)0.05(Y2O3)0.1(CeO2)0.7,0.005179475,549.2490931,20,1.9,12.7,https://doi.org/10.1016/j.ijhydene.2010.02.080,H
(BaO)1(In2O3)0.05(Y2O3)0.1(CeO2)0.7,0.008706621,799.555205,0,1.9,12.7,https://doi.org/10.1016/j.ijhydene.2010.02.080,H
(BaO)1(In2O3)0.05(Y2O3)0.1(CeO2)0.7,0.0078476,751.0963855,0,1.9,12.7,https://doi.org/10.1016/j.ijhydene.2010.02.080,H
(BaO)1(In2O3)0.05(Y2O3)0.1(CeO2)0.7,0.007073332,699.8183119,0,1.9,12.7,https://doi.org/10.1016/j.ijhydene.2010.02.080,H
(BaO)1(In2O3)0.05(Y2O3)0.1(CeO2)0.7,0.006715335,649.6594301,0,1.9,12.7,https://doi.org/10.1016/j.ijhydene.2010.02.080,H
(BaO)1(In2O3)0.05(Y2O3)0.1(CeO2)0.7,0.007073332,599.9139923,0,1.9,12.7,https://doi.org/10.1016/j.ijhydene.2010.02.080,H
(BaO)1(In2O3)0.05(Y2O3)0.1(CeO2)0.7,0.006375456,549.2490931,0,1.9,12.7,https://doi.org/10.1016/j.ijhydene.2010.02.080,H
(BaO)1(In2O3)0.1(Y2O3)0.05(CeO2)0.7,0.005870252,799.555205,20,0,8.5,https://doi.org/10.1016/j.ijhydene.2010.02.080,H
(BaO)1(In2O3)0.1(Y2O3)0.05(CeO2)0.7,0.004092044,751.0963855,20,0,8.5,https://doi.org/10.1016/j.ijhydene.2010.02.080,H
(BaO)1(In2O3)0.1(Y2O3)0.05(CeO2)0.7,0.002573047,699.8183119,20,0,8.5,https://doi.org/10.1016/j.ijhydene.2010.02.080,H
(BaO)1(In2O3)0.1(Y2O3)0.05(CeO2)0.7,0.001703504,649.6594301,20,0,8.5,https://doi.org/10.1016/j.ijhydene.2010.02.080,H
(BaO)1(In2O3)0.1(Y2O3)0.05(CeO2)0.7,0.001127817,599.9139923,20,0,8.5,https://doi.org/10.1016/j.ijhydene.2010.02.080,H
(BaO)1(In2O3)0.1(Y2O3)0.05(CeO2)0.7,0.000786181,549.2490931,20,0,8.5,https://doi.org/10.1016/j.ijhydene.2010.02.080,H
(BaO)1(In2O3)0.1(Y2O3)0.05(CeO2)0.7,0.007073332,799.555205,20,1.9,8.5,https://doi.org/10.1016/j.ijhydene.2010.02.080,H
(BaO)1(In2O3)0.1(Y2O3)0.05(CeO2)0.7,0.005455595,751.0963855,20,1.9,8.5,https://doi.org/10.1016/j.ijhydene.2010.02.080,H
(BaO)1(In2O3)0.1(Y2O3)0.05(CeO2)0.7,0.004207849,699.8183119,20,1.9,8.5,https://doi.org/10.1016/j.ijhydene.2010.02.080,H
(BaO)1(In2O3)0.1(Y2O3)0.05(CeO2)0.7,0.003600733,649.6594301,20,1.9,8.5,https://doi.org/10.1016/j.ijhydene.2010.02.080,H
(BaO)1(In2O3)0.1(Y2O3)0.05(CeO2)0.7,0.003081214,599.9139923,20,1.9,8.5,https://doi.org/10.1016/j.ijhydene.2010.02.080,H
(BaO)1(In2O3)0.1(Y2O3)0.05(CeO2)0.7,0.002636651,549.2490931,20,1.9,8.5,https://doi.org/10.1016/j.ijhydene.2010.02.080,H
(BaO)1(In2O3)0.1(Y2O3)0.05(CeO2)0.7,0.004207849,799.555205,0,1.9,8.5,https://doi.org/10.1016/j.ijhydene.2010.02.080,H
(BaO)1(In2O3)0.1(Y2O3)0.05(CeO2)0.7,0.003245474,751.0963855,0,1.9,8.5,https://doi.org/10.1016/j.ijhydene.2010.02.080,H
(BaO)1(In2O3)0.1(Y2O3)0.05(CeO2)0.7,0.002777212,699.8183119,0,1.9,8.5,https://doi.org/10.1016/j.ijhydene.2010.02.080,H
(BaO)1(In2O3)0.1(Y2O3)0.05(CeO2)0.7,0.002503204,649.6594301,0,1.9,8.5,https://doi.org/10.1016/j.ijhydene.2010.02.080,H
(BaO)1(In2O3)0.1(Y2O3)0.05(CeO2)0.7,0.002636651,599.9139923,0,1.9,8.5,https://doi.org/10.1016/j.ijhydene.2010.02.080,H
(BaO)1(In2O3)0.1(Y2O3)0.05(CeO2)0.7,0.002636651,549.2490931,0,1.9,8.5,https://doi.org/10.1016/j.ijhydene.2010.02.080,H
(La2O3)0.3(SrO)0.4(CoO)0.5(CoO2)0.5,2088.517202,700.4513274,20,0,,10.1149/1.2167929,O+E
(La2O3)0.3(SrO)0.4(CoO)0.5(CoO2)0.5,1938.426743,649.5806452,20,0,,10.1149/1.2167929,O+E
(La2O3)0.3(SrO)0.4(CoO)0.5(CoO2)0.5,2250.229017,600.5491753,20,0,,10.1149/1.2167929,O+E
(La2O3)0.3(SrO)0.4(CoO)0.5(CoO2)0.5,2250.229017,549.3116734,20,0,,10.1149/1.2167929,O+E
(La2O3)0.3(SrO)0.4(CoO)0.5(CoO2)0.5,2088.517202,499.972973,20,0,,10.1149/1.2167929,O+E
(La2O3)0.3(SrO)0.4(CoO)0.5(CoO2)0.5,2250.229017,449.5871652,20,0,,10.1149/1.2167929,O+E
(La2O3)0.35(SrO)0.3(CoO)0.5(CoO2)0.5,361.1538989,879.58593,20,0,,https://doi.org/10.1016/0167-2738(87)90039-7,O+E
(La2O3)0.35(SrO)0.3(CoO)0.5(CoO2)0.5,345.5107295,807.316146,20,0,,https://doi.org/10.1016/0167-2738(87)90039-7,O+E
(La2O3)0.35(SrO)0.3(CoO)0.5(CoO2)0.5,276.8902684,700.2808897,20,0,,https://doi.org/10.1016/0167-2738(87)90039-7,O+E
(La2O3)0.35(SrO)0.3(CoO)0.5(CoO2)0.5,136.3375184,579.155326,20,0,,https://doi.org/10.1016/0167-2738(87)90039-7,O+E
(La2O3)0.35(SrO)0.3(CoO)0.5(CoO2)0.5,76.66822075,468.6670973,20,0,,https://doi.org/10.1016/0167-2738(87)90039-7,O+E
(La2O3)0.35(SrO)0.3(CoO)0.5(CoO2)0.5,51.46813857,396.4029851,20,0,,https://doi.org/10.1016/0167-2738(87)90039-7,O+E
(La2O3)0.35(SrO)0.3(CoO)0.5(CoO2)0.5,39.45970609,342.4901793,20,0,,https://doi.org/10.1016/0167-2738(87)90039-7,O+E
(La2O3)0.35(SrO)0.3(CoO)0.5(CoO2)0.5,24.24462017,287.252957,20,0,,https://doi.org/10.1016/0167-2738(87)90039-7,O+E
(La2O3)0.35(SrO)0.3(CoO)0.5(CoO2)0.5,12.4782547,226.1652755,20,0,,https://doi.org/10.1016/0167-2738(87)90039-7,O+E
(La2O3)0.35(SrO)0.3(CoO)0.5(CoO2)0.5,7.334738171,177.1317275,20,0,,https://doi.org/10.1016/0167-2738(87)90039-7,O+E
(La2O3)0.35(SrO)0.3(CoO)0.5(CoO2)0.5,4.710607542,136.8931856,20,0,,https://doi.org/10.1016/0167-2738(87)90039-7,O+E
(La2O3)0.15(CaO)0.6(CeO2)0.1(Cr2O3)0.5,20.23183379,884.5239054,20,0,,https://doi.org/10.1016/j.ijhydene.2012.04.112,O+E
(La2O3)0.15(CaO)0.6(CeO2)0.1(Cr2O3)0.5,20.2697963,833.8334937,20,0,,https://doi.org/10.1016/j.ijhydene.2012.04.112,O+E
(La2O3)0.15(CaO)0.6(CeO2)0.1(Cr2O3)0.5,20.33429836,783.9852941,20,0,,https://doi.org/10.1016/j.ijhydene.2012.04.112,O+E
(La2O3)0.15(CaO)0.6(CeO2)0.1(Cr2O3)0.5,18.74109511,735.32968,20,0,,https://doi.org/10.1016/j.ijhydene.2012.04.112,O+E
(La2O3)0.15(CaO)0.6(CeO2)0.1(Cr2O3)0.5,18.94576863,682.5463232,20,0,,https://doi.org/10.1016/j.ijhydene.2012.04.112,O+E
(La2O3)0.15(CaO)0.6(CeO2)0.1(Cr2O3)0.5,18.34859332,632.511811,20,0,,https://doi.org/10.1016/j.ijhydene.2012.04.112,O+E
(La2O3)0.15(CaO)0.6(CeO2)0.1(Cr2O3)0.5,17.81433619,582.9732043,20,0,,https://doi.org/10.1016/j.ijhydene.2012.04.112,O+E
(La2O3)0.15(CaO)0.6(CeO2)0.1(Cr2O3)0.5,16.60127109,534.5842697,20,0,,https://doi.org/10.1016/j.ijhydene.2012.04.112,O+E
(La2O3)0.15(CaO)0.6(CeO2)0.1(Cr2O3)0.5,14.97991685,480.8511963,20,0,,https://doi.org/10.1016/j.ijhydene.2012.04.112,O+E
(La2O3)0.15(CaO)0.6(CeO2)0.1(Cr2O3)0.5,14.07723539,432.3051211,20,0,,https://doi.org/10.1016/j.ijhydene.2012.04.112,O+E
(La2O3)0.15(CaO)0.6(CeO2)0.1(Cr2O3)0.5,4.317454755,884.5239054,0,3,,https://doi.org/10.1016/j.ijhydene.2012.04.112,O+E
(La2O3)0.15(CaO)0.6(CeO2)0.1(Cr2O3)0.5,3.203370326,833.8334937,0,3,,https://doi.org/10.1016/j.ijhydene.2012.04.112,O+E
(La2O3)0.15(CaO)0.6(CeO2)0.1(Cr2O3)0.5,2.379864184,783.9852941,0,3,,https://doi.org/10.1016/j.ijhydene.2012.04.112,O+E
(La2O3)0.15(CaO)0.6(CeO2)0.1(Cr2O3)0.5,1.9225715,738.4335972,0,3,,https://doi.org/10.1016/j.ijhydene.2012.04.112,O+E
(La2O3)0.15(CaO)0.6(CeO2)0.1(Cr2O3)0.5,1.563988287,688.1366486,0,3,,https://doi.org/10.1016/j.ijhydene.2012.04.112,O+E
(La2O3)0.15(CaO)0.6(CeO2)0.1(Cr2O3)0.5,1.168020976,640.0607384,0,3,,https://doi.org/10.1016/j.ijhydene.2012.04.112,O+E
(La2O3)0.15(CaO)0.6(CeO2)0.1(Cr2O3)0.5,0.877029692,589.7156789,0,3,,https://doi.org/10.1016/j.ijhydene.2012.04.112,O+E
(La2O3)0.15(CaO)0.6(CeO2)0.1(Cr2O3)0.5,0.717136814,542.6028369,0,3,,https://doi.org/10.1016/j.ijhydene.2012.04.112,O+E
(La2O3)0.15(CaO)0.6(CeO2)0.1(Cr2O3)0.5,0.521293588,489.5994695,0,3,,https://doi.org/10.1016/j.ijhydene.2012.04.112,O+E
(La2O3)0.15(CaO)0.6(CeO2)0.1(Cr2O3)0.5,0.425424858,449.361809,0,3,,https://doi.org/10.1016/j.ijhydene.2012.04.112,O+E
(La2O3)0.45(SrO)0.1(Ga2O3)0.3(MgO)0.4,0.096890432,1000,1.00E-02,0,,https://doi.org/10.1021/ja00088a016,O
(Pr2O3)0.2(SrO)0.6(CoO2)0.2(Fe2O3)0.4,196.4137214,103.6036036,20,0,,https://doi.org/10.1016/j.jpowsour.2014.11.141 ,O+E
(Pr2O3)0.2(SrO)0.6(CoO2)0.2(Fe2O3)0.4,242.7927928,150.4504505,20,0,,https://doi.org/10.1016/j.jpowsour.2014.11.141 ,O+E
(Pr2O3)0.2(SrO)0.6(CoO2)0.2(Fe2O3)0.4,289.1891892,200.9009009,20,0,,https://doi.org/10.1016/j.jpowsour.2014.11.141 ,O+E
(Pr2O3)0.2(SrO)0.6(CoO2)0.2(Fe2O3)0.4,331.7221067,247.7477477,20,0,,https://doi.org/10.1016/j.jpowsour.2014.11.141,O+E
(Pr2O3)0.2(SrO)0.6(CoO2)0.2(Fe2O3)0.4,362.7338877,298.1981982,20,0,,https://doi.org/10.1016/j.jpowsour.2014.11.141,O+E
(Pr2O3)0.2(SrO)0.6(CoO2)0.2(Fe2O3)0.4,393.7456687,348.6486486,20,0,,https://doi.org/10.1016/j.jpowsour.2014.11.141,O+E
(Pr2O3)0.2(SrO)0.6(CoO2)0.2(Fe2O3)0.4,436.2959113,399.0990991,20,0,,https://doi.org/10.1016/j.jpowsour.2014.11.141,O+E
(Pr2O3)0.2(SrO)0.6(CoO2)0.2(Fe2O3)0.4,482.6923077,449.5495495,20,0,,https://doi.org/10.1016/j.jpowsour.2014.11.141,O+E
(Pr2O3)0.2(SrO)0.6(CoO2)0.2(Fe2O3)0.4,517.5502426,500,20,0,,https://doi.org/10.1016/j.jpowsour.2014.11.141,E
(Pr2O3)0.2(SrO)0.6(CoO2)0.2(Fe2O3)0.4,498.5620236,550.4504505,20,0,,https://doi.org/10.1016/j.jpowsour.2014.11.141,E
(Pr2O3)0.2(SrO)0.6(CoO2)0.2(Fe2O3)0.4,444.9410949,597.2972973,20,0,,https://doi.org/10.1016/j.jpowsour.2014.11.141,E
(Pr2O3)0.2(SrO)0.6(CoO2)0.2(Fe2O3)0.4,391.3374913,647.7477477,20,0,,https://doi.org/10.1016/j.jpowsour.2014.11.141,E
(Pr2O3)0.2(SrO)0.6(CoO2)0.2(Fe2O3)0.4,322.3492723,698.1981982,20,0,,https://doi.org/10.1016/j.jpowsour.2014.11.141,E
(Pr2O3)0.2(SrO)0.6(CoO2)0.2(Fe2O3)0.4,264.8995149,748.6486486,20,0,,https://doi.org/10.1016/j.jpowsour.2014.11.141,E
(Pr2O3)0.2(SrO)0.6(CoO2)0.2(Fe2O3)0.4,218.988219,799.0990991,20,0,,https://doi.org/10.1016/j.jpowsour.2014.11.141,E
(Pr2O3)0.2(SrO)0.6(CoO2)0.2(Fe2O3)0.4,184.6153846,849.5495495,20,0,,https://doi.org/10.1016/j.jpowsour.2014.11.141,E
(Pr2O3)0.2(SrO)0.6(CoO2)0.2(Fe2O3)0.4,157.9348579,900,20,0,,https://doi.org/10.1016/j.jpowsour.2014.11.141,E
(La2O3)0.45(SrO)0.1(YbO)0.2(Y2O3)0.4,0.000230365,500,0,1.9,,https://doi.org/10.1016/j.ssi.2013.11.044,O
(La2O3)0.45(SrO)0.1(YbO)0.2(Y2O3)0.4,0.000483686,600,0,1.9,,https://doi.org/10.1016/j.ssi.2013.11.044,O
(La2O3)0.45(SrO)0.1(YbO)0.2(Y2O3)0.4,0.000925642,700,0,1.9,,https://doi.org/10.1016/j.ssi.2013.11.044,O
(La2O3)0.45(SrO)0.1(YbO)0.2(Y2O3)0.4,0.001222498,800,0,1.9,,https://doi.org/10.1016/j.ssi.2013.11.044,O
(La2O3)0.45(SrO)0.1(YbO)0.2(Y2O3)0.4,0.002035752,900,0,1.9,,https://doi.org/10.1016/j.ssi.2013.11.044,O
(La2O3)0.45(SrO)0.1(YbO)0.2(In2O3)0.4,0.000239883,400,0,1.9,,https://doi.org/10.1016/j.ssi.2013.11.044,O+H
(La2O3)0.45(SrO)0.1(YbO)0.2(In2O3)0.4,0.001202264,500,0,1.9,,https://doi.org/10.1016/j.ssi.2013.11.044,O+H
(La2O3)0.45(SrO)0.1(YbO)0.2(In2O3)0.4,0.002187762,600,0,1.9,,https://doi.org/10.1016/j.ssi.2013.11.044,O+H
(La2O3)0.45(SrO)0.1(YbO)0.2(In2O3)0.4,0.002884032,700,0,1.9,,https://doi.org/10.1016/j.ssi.2013.11.044,O+H
(La2O3)0.45(SrO)0.1(YbO)0.2(In2O3)0.4,0.004570882,800,0,1.9,,https://doi.org/10.1016/j.ssi.2013.11.044,O
(La2O3)0.45(SrO)0.1(YbO)0.2(In2O3)0.4,0.008709636,900,0,1.9,,https://doi.org/10.1016/j.ssi.2013.11.044,O
(SrO)1(NbO2)0.1(WO2)0.1(Fe2O3)0.4,15.76305221,200,20,0,,https://doi.org/10.1016/j.ceramint.2019.01.019,O+E
(SrO)1(NbO2)0.1(WO2)0.1(Fe2O3)0.4,17.87148594,249.704142,20,0,,https://doi.org/10.1016/j.ceramint.2019.01.019,O+E
(SrO)1(NbO2)0.1(WO2)0.1(Fe2O3)0.4,21.94779116,301.183432,20,0,,https://doi.org/10.1016/j.ceramint.2019.01.019,O+E
(SrO)1(NbO2)0.1(WO2)0.1(Fe2O3)0.4,25.46184739,350.887574,20,0,,https://doi.org/10.1016/j.ceramint.2019.01.019,O+E
(SrO)1(NbO2)0.1(WO2)0.1(Fe2O3)0.4,29.25702811,400.591716,20,0,,https://doi.org/10.1016/j.ceramint.2019.01.019,O+E
(SrO)1(NbO2)0.1(WO2)0.1(Fe2O3)0.4,30.6626506,448.5207101,20,0,,https://doi.org/10.1016/j.ceramint.2019.01.019,E
(SrO)1(NbO2)0.1(WO2)0.1(Fe2O3)0.4,29.53815261,500,20,0,,https://doi.org/10.1016/j.ceramint.2019.01.019,E
(SrO)1(NbO2)0.1(WO2)0.1(Fe2O3)0.4,28.13253012,547.9289941,20,0,,https://doi.org/10.1016/j.ceramint.2019.01.019,E
(SrO)1(NbO2)0.1(WO2)0.1(Fe2O3)0.4,26.02409639,599.408284,20,0,,https://doi.org/10.1016/j.ceramint.2019.01.019,E
(SrO)1(NbO2)0.1(WO2)0.1(Fe2O3)0.4,23.7751004,650.887574,20,0,,https://doi.org/10.1016/j.ceramint.2019.01.019,E
(SrO)1(NbO2)0.1(WO2)0.1(Fe2O3)0.4,22.08835341,698.816568,20,0,,https://doi.org/10.1016/j.ceramint.2019.01.019,E
(SrO)1(NbO2)0.1(WO2)0.1(Fe2O3)0.4,19.97991968,750.295858,20,0,,https://doi.org/10.1016/j.ceramint.2019.01.019,E
(SrO)1(NbO2)0.1(WO2)0.1(Fe2O3)0.4,17.87148594,800,20,0,,https://doi.org/10.1016/j.ceramint.2019.01.019,E
(Nd2O3)0.45(CaO)0.1(Al2O3)0.125(Ga2O3)0.375,0.024821839,950,3.97E-18,0,,10.1149/1.2059351,O
(Nd2O3)0.45(CaO)0.1(Al2O3)0.125(Ga2O3)0.375,0.025899068,950,3.29E-12,0,,10.1149/1.2059351,O
(Nd2O3)0.45(CaO)0.1(Al2O3)0.125(Ga2O3)0.375,0.027023047,950,2.70E-03,0,,10.1149/1.2059351,O
(Nd2O3)0.45(CaO)0.1(Al2O3)0.125(Ga2O3)0.375,0.029419459,950,5.96E+01,0,,10.1149/1.2059351,O
(Nd2O3)0.45(CaO)0.1(Al2O3)0.125(Ga2O3)0.375,0.026101998,950,1.00E-03,0,,10.1149/1.2059351,O
(BaO)0.7(SrO)0.3(CeO2)0.7(ZrO2)0.3,0.008179624,649.7348527,20,0,1,https://doi.org/10.1016/j.ceramint.2017.07.192,H
(BaO)0.7(SrO)0.3(CeO2)0.7(ZrO2)0.3,0.007893582,599.9184926,20,0,1,https://doi.org/10.1016/j.ceramint.2017.07.192,H
(BaO)0.7(SrO)0.3(CeO2)0.7(ZrO2)0.3,0.007603011,550.4126984,20,0,1,https://doi.org/10.1016/j.ceramint.2017.07.192,H
(BaO)0.7(SrO)0.3(CeO2)0.7(ZrO2)0.3,0.007355548,500.2919255,20,0,1,https://doi.org/10.1016/j.ceramint.2017.07.192,H
(BaO)0.7(SrO)0.3(CeO2)0.7(ZrO2)0.3,0.007130771,449.9965157,20,0,1,https://doi.org/10.1016/j.ceramint.2017.07.192,H
(La2O3)0.35(SrO)0.3(Ga2O3)0.35(MgO)0.3,0.103,800,1.00E-03,0,,https://doi.org/10.1111/j.1151-2916.1998.tb02662.x,O
(La2O3)0.35(SrO)0.3(Ga2O3)0.35(MgO)0.3,0.045,702,1.00E-03,0,,https://doi.org/10.1111/j.1151-2916.1998.tb02662.x,O
(La2O3)0.35(SrO)0.3(Ga2O3)0.35(MgO)0.3,0.013,595,1.00E-03,0,,https://doi.org/10.1111/j.1151-2916.1998.tb02662.x,O
(La2O3)0.375(SrO)0.25(Ga2O3)0.35(MgO)0.3,0.107,800,1.00E-03,0,,https://doi.org/10.1111/j.1151-2916.1998.tb02662.x,O
(La2O3)0.375(SrO)0.25(Ga2O3)0.35(MgO)0.3,0.048,702,1.00E-03,0,,https://doi.org/10.1111/j.1151-2916.1998.tb02662.x,O
(La2O3)0.375(SrO)0.25(Ga2O3)0.35(MgO)0.3,0.014,595,1.00E-03,0,,https://doi.org/10.1111/j.1151-2916.1998.tb02662.x,O
(La2O3)0.4(SrO)0.2(Ga2O3)0.35(MgO)0.3,0.116,800,1.00E-03,0,,https://doi.org/10.1111/j.1151-2916.1998.tb02662.x,O
(La2O3)0.4(SrO)0.2(Ga2O3)0.35(MgO)0.3,0.053,702,1.00E-03,0,,https://doi.org/10.1111/j.1151-2916.1998.tb02662.x,O
(La2O3)0.4(SrO)0.2(Ga2O3)0.35(MgO)0.3,0.015,595,1.00E-03,0,,https://doi.org/10.1111/j.1151-2916.1998.tb02662.x,O
(La2O3)0.425(SrO)0.15(Ga2O3)0.35(MgO)0.3,0.113,800,1.00E-03,0,,https://doi.org/10.1111/j.1151-2916.1998.tb02662.x,O
(La2O3)0.425(SrO)0.15(Ga2O3)0.35(MgO)0.3,0.05,702,1.00E-03,0,,https://doi.org/10.1111/j.1151-2916.1998.tb02662.x,O
(La2O3)0.425(SrO)0.15(Ga2O3)0.35(MgO)0.3,0.014,595,1.00E-03,0,,https://doi.org/10.1111/j.1151-2916.1998.tb02662.x,O
(La2O3)0.45(SrO)0.1(Ga2O3)0.35(MgO)0.3,0.271134417,1000,1.00E-02,0,,https://doi.org/10.1021/ja00088a016,O
(La2O3)0.45(SrO)0.1(Ga2O3)0.35(MgO)0.3,0.096,800,1.00E-03,0,,https://doi.org/10.1111/j.1151-2916.1998.tb02662.x,O
(La2O3)0.45(SrO)0.1(Ga2O3)0.35(MgO)0.3,0.041,702,1.00E-03,0,,https://doi.org/10.1111/j.1151-2916.1998.tb02662.x,O
(La2O3)0.45(SrO)0.1(Ga2O3)0.35(MgO)0.3,0.01,595,1.00E-03,0,,https://doi.org/10.1111/j.1151-2916.1998.tb02662.x,O
(La2O3)0.475(SrO)0.05(Ga2O3)0.35(MgO)0.3,0.072,800,1.00E-03,0,,https://doi.org/10.1111/j.1151-2916.1998.tb02662.x,O
(La2O3)0.475(SrO)0.05(Ga2O3)0.35(MgO)0.3,0.03,702,1.00E-03,0,,https://doi.org/10.1111/j.1151-2916.1998.tb02662.x,O
(La2O3)0.475(SrO)0.05(Ga2O3)0.35(MgO)0.3,0.006,595,1.00E-03,0,,https://doi.org/10.1111/j.1151-2916.1998.tb02662.x,O
(SrO)0.575(La2O3)0.1(TiO2)0.75(NbO2)0.25,3.224103268,930,1.02167E-18,0,,https://doi.org/10.1039/A702865B,E
(SrO)0.575(La2O3)0.1(TiO2)0.75(NbO2)0.25,3.222838977,930,1.90361E-18,0,,https://doi.org/10.1039/A702865B,E
(SrO)0.575(La2O3)0.1(TiO2)0.75(NbO2)0.25,3.219049077,930,1.23135E-17,0,,https://doi.org/10.1039/A702865B,E
(SrO)0.575(La2O3)0.1(TiO2)0.75(NbO2)0.25,3.216777277,930,3.77452E-17,0,,https://doi.org/10.1039/A702865B,E
(SrO)0.575(La2O3)0.1(TiO2)0.75(NbO2)0.25,3.215515858,930,7.03281E-17,0,,https://doi.org/10.1039/A702865B,E
(SrO)0.575(La2O3)0.1(TiO2)0.75(NbO2)0.25,3.122060777,930,1.48328E-16,0,,https://doi.org/10.1039/A702865B,E
(SrO)0.575(La2O3)0.1(TiO2)0.75(NbO2)0.25,3.120346924,930,3.54484E-16,0,,https://doi.org/10.1039/A702865B,E
(SrO)0.575(La2O3)0.1(TiO2)0.75(NbO2)0.25,3.118389387,930,9.59453E-16,0,,https://doi.org/10.1039/A702865B,E
(SrO)0.575(La2O3)0.1(TiO2)0.75(NbO2)0.25,3.027282194,930,2.59552E-15,0,,https://doi.org/10.1039/A702865B,E
(SrO)0.575(La2O3)0.1(TiO2)0.75(NbO2)0.25,3.026569872,930,3.77038E-15,0,,https://doi.org/10.1039/A702865B,E
(SrO)0.575(La2O3)0.1(TiO2)0.75(NbO2)0.25,3.111059555,930,4.01446E-14,0,,https://doi.org/10.1039/A702865B,E
(SrO)0.575(La2O3)0.1(TiO2)0.75(NbO2)0.25,2.931699029,930,3.32722E-13,0,,https://doi.org/10.1039/A702865B,E
(SrO)0.575(La2O3)0.1(TiO2)0.75(NbO2)0.25,2.845153334,930,1.4808E-12,0,,https://doi.org/10.1039/A702865B,E
(SrO)0.575(La2O3)0.1(TiO2)0.75(NbO2)0.25,2.602995187,930,2.93155E-11,0,,https://doi.org/10.1039/A702865B,E
(SrO)0.575(La2O3)0.1(TiO2)0.75(NbO2)0.25,2.52555864,930,1.89527E-10,0,,https://doi.org/10.1039/A702865B,E
(SrO)0.575(La2O3)0.1(TiO2)0.75(NbO2)0.25,2.522390837,930,1.38844E-09,0,,https://doi.org/10.1039/A702865B,E
(SrO)0.575(La2O3)0.1(TiO2)0.75(NbO2)0.25,2.362469386,930,0.000189299,0,,https://doi.org/10.1039/A702865B,E
(SrO)0.575(La2O3)0.1(TiO2)0.75(NbO2)0.25,2.100881308,930,0.00138387,0,,https://doi.org/10.1039/A702865B,E
(SrO)0.575(La2O3)0.1(TiO2)0.75(NbO2)0.25,1.980381427,930,0.006971655,0,,https://doi.org/10.1039/A702865B,E
(SrO)0.575(La2O3)0.1(TiO2)0.75(NbO2)0.25,1.568928123,930,0.021281386,0,,https://doi.org/10.1039/A702865B,E
(SrO)0.575(La2O3)0.1(TiO2)0.75(NbO2)0.25,1.47917143,930,0.083585996,0,,https://doi.org/10.1039/A702865B,E
(SrO)0.575(La2O3)0.1(TiO2)0.75(NbO2)0.25,1.436406434,930,0.137442222,0,,https://doi.org/10.1039/A702865B,E
(SrO)0.575(La2O3)0.1(TiO2)0.75(NbO2)0.25,1.354974977,930,0.225880998,0,,https://doi.org/10.1039/A702865B,E
(SrO)0.575(La2O3)0.1(TiO2)0.75(NbO2)0.25,1.277859206,930,0.539261665,0,,https://doi.org/10.1039/A702865B,E