Composition,Conductivity (S/cm),Temperature (degC),PO2 (%),PH2O (%),Grainsize,Ref,Carrier Type
(CaO)1(TiO2)0.5(Al2O3)0.25,0.047054688,1142.942283,2.00E+01,0,,https://doi.org/10.1016/0167-2738(92)90095-7,O
(CaO)1(TiO2)0.5(Al2O3)0.25,0.039777169,1113.620767,2.00E+01,0,,https://doi.org/10.1016/0167-2738(92)90095-7,O
(CaO)1(TiO2)0.5(Al2O3)0.25,0.0355376,1085.465294,2.00E+01,0,,https://doi.org/10.1016/0167-2738(92)90095-7,O
(CaO)1(TiO2)0.5(Al2O3)0.25,0.022715283,1021.691956,2.00E+01,0,,https://doi.org/10.1016/0167-2738(92)90095-7,O
(CaO)1(TiO2)0.5(Al2O3)0.25,0.014939815,973.5195416,2.00E+01,0,,https://doi.org/10.1016/0167-2738(92)90095-7,O
(CaO)1(TiO2)0.5(Al2O3)0.25,0.012281067,947.5533876,2.00E+01,0,,https://doi.org/10.1016/0167-2738(92)90095-7,O
(CaO)1(TiO2)0.5(Al2O3)0.25,0.010375527,919.5878119,2.00E+01,0,,https://doi.org/10.1016/0167-2738(92)90095-7,O
(CaO)1(TiO2)0.5(Al2O3)0.25,0.008531581,898.7278531,2.00E+01,0,,https://doi.org/10.1016/0167-2738(92)90095-7,O
(CaO)1(TiO2)0.5(Al2O3)0.25,0.006633896,872.9565893,2.00E+01,0,,https://doi.org/10.1016/0167-2738(92)90095-7,O
(CaO)1(TiO2)0.5(Al2O3)0.25,0.005017602,848.3026435,2.00E+01,0,,https://doi.org/10.1016/0167-2738(92)90095-7,O
(CaO)1(TiO2)0.5(Al2O3)0.25,0.004012134,827.2549529,2.00E+01,0,,https://doi.org/10.1016/0167-2738(92)90095-7,O
(CaO)1(TiO2)0.5(Al2O3)0.25,0.00286961,799.5794923,2.00E+01,0,,https://doi.org/10.1016/0167-2738(92)90095-7,O
(CaO)1(TiO2)0.5(Al2O3)0.25,0.002052439,773.2621494,2.00E+01,0,,https://doi.org/10.1016/0167-2738(92)90095-7,O
(CaO)1(TiO2)0.5(Al2O3)0.25,0.001596386,754.921065,2.00E+01,0,,https://doi.org/10.1016/0167-2738(92)90095-7,O
(CaO)1(TiO2)0.5(Al2O3)0.25,0.001241301,735.0337733,2.00E+01,0,,https://doi.org/10.1016/0167-2738(92)90095-7,O
(CaO)1(TiO2)0.5(Al2O3)0.25,0.000939979,724.3461972,2.00E+01,0,,https://doi.org/10.1016/0167-2738(92)90095-7,O
(CaO)1(TiO2)0.5(Al2O3)0.25,0.000710541,701.5398663,2.00E+01,0,,https://doi.org/10.1016/0167-2738(92)90095-7,O
(CaO)1(TiO2)0.5(Al2O3)0.25,0.000508202,679.7649047,2.00E+01,0,,https://doi.org/10.1016/0167-2738(92)90095-7,O
(CaO)1(TiO2)0.5(Al2O3)0.25,0.000307357,647.9598107,2.00E+01,0,,https://doi.org/10.1016/0167-2738(92)90095-7,O
(CaO)1(TiO2)0.5(Al2O3)0.25,0.000219897,630.2311403,2.00E+01,0,,https://doi.org/10.1016/0167-2738(92)90095-7,O
(CaO)1(TiO2)0.5(Al2O3)0.25,0.000119028,599.9839416,2.00E+01,0,,https://doi.org/10.1016/0167-2738(92)90095-7,O
(CaO)1(TiO2)0.5(Fe2O3)0.25,0.168926397,927.4326788,2.00E+01,0,,https://doi.org/10.1016/0167-2738(92)90095-7,O+E
(CaO)1(TiO2)0.5(Fe2O3)0.25,0.127342614,771.5548014,2.00E+01,0,,https://doi.org/10.1016/0167-2738(92)90095-7,O+E
(CaO)1(TiO2)0.5(Fe2O3)0.25,0.102885934,645.5762462,2.00E+01,0,,https://doi.org/10.1016/0167-2738(92)90095-7,O+E
(CaO)1(TiO2)0.5(Fe2O3)0.25,0.080304062,551.4122975,2.00E+01,0,,https://doi.org/10.1016/0167-2738(92)90095-7,O+E
(CaO)1(TiO2)0.5(Fe2O3)0.25,0.050775142,445.131426,2.00E+01,0,,https://doi.org/10.1016/0167-2738(92)90095-7,O+E
(CaO)1(TiO2)0.5(Fe2O3)0.25,0.031059271,383.3628679,2.00E+01,0,,https://doi.org/10.1016/0167-2738(92)90095-7,O+E
(CaO)1(TiO2)0.5(Fe2O3)0.25,0.016499623,311.854028,2.00E+01,0,,https://doi.org/10.1016/0167-2738(92)90095-7,O+E
(CaO)1(TiO2)0.5(Al2O3)0.25,0.003028821,800,75.633376,0,,https://doi.org/10.1016/0013-7480(71)90121-5,O
(CaO)1(TiO2)0.5(Al2O3)0.25,0.002866793,800,16.16474899,0,,https://doi.org/10.1016/0013-7480(71)90121-5,O
(CaO)1(TiO2)0.5(Al2O3)0.25,0.002224788,800,0.180545527,0,,https://doi.org/10.1016/0013-7480(71)90121-5,O
(CaO)1(TiO2)0.5(Al2O3)0.25,0.001689206,800,0.000657211,0,,https://doi.org/10.1016/0013-7480(71)90121-5,O
(CaO)1(TiO2)0.5(Al2O3)0.25,0.001710425,800,1.84011E-06,0,,https://doi.org/10.1016/0013-7480(71)90121-5,O
(CaO)1(TiO2)0.5(Al2O3)0.25,0.001750069,800,7.36668E-08,0,,https://doi.org/10.1016/0013-7480(71)90121-5,O
(CaO)1(TiO2)0.5(Al2O3)0.25,0.001938034,800,3.57977E-12,0,,https://doi.org/10.1016/0013-7480(71)90121-5,O
(CaO)1(TiO2)0.5(Al2O3)0.25,0.00253667,800,1.7329E-18,0,,https://doi.org/10.1016/0013-7480(71)90121-5,O
(CaO)1(TiO2)0.5(Al2O3)0.25,0.00346226,800,1.74143E-20,0,,https://doi.org/10.1016/0013-7480(71)90121-5,O
(SrO)1(NbO2)0.5(Mn2O3)0.25,0.037458021,950,1.79128E-12,0,,https://doi.org/10.1016/j.ssi.2013.01.005,E
(SrO)1(NbO2)0.5(Mn2O3)0.25,1.692844226,950,2.85559E-12,0,,https://doi.org/10.1016/j.ssi.2013.01.005,E
(SrO)1(NbO2)0.5(Mn2O3)0.25,2.985533454,950,1.15689E-11,0,,https://doi.org/10.1016/j.ssi.2013.01.005,E
(SrO)1(NbO2)0.5(Mn2O3)0.25,4.089899251,950,1.84426E-11,0,,https://doi.org/10.1016/j.ssi.2013.01.005,E
(SrO)1(NbO2)0.5(Mn2O3)0.25,6.307930767,950,3.027E-10,0,,https://doi.org/10.1016/j.ssi.2013.01.005,E
(SrO)1(NbO2)0.5(Mn2O3)0.25,6.693877551,950,1.2626E-08,0,,https://doi.org/10.1016/j.ssi.2013.01.005,E
(SrO)1(NbO2)0.5(Mn2O3)0.25,6.893825885,950,3.3036E-07,0,,https://doi.org/10.1016/j.ssi.2013.01.005,E
(SrO)1(NbO2)0.5(Mn2O3)0.25,6.72642728,950,8.64388E-06,0,,https://doi.org/10.1016/j.ssi.2013.01.005,E
(SrO)1(NbO2)0.5(Mn2O3)0.25,6.745027125,950,0.000360547,0,,https://doi.org/10.1016/j.ssi.2013.01.005,E
(SrO)1(NbO2)0.5(Mn2O3)0.25,6.940325497,950,0.003712105,0,,https://doi.org/10.1016/j.ssi.2013.01.005,E
(SrO)1(NbO2)0.5(Mn2O3)0.25,6.779901834,950,0.393492726,0,,https://doi.org/10.1016/j.ssi.2013.01.005,E
(SrO)1(NbO2)0.5(Mn2O3)0.25,6.984500129,950,26.16504699,0,,https://doi.org/10.1016/j.ssi.2013.01.005,E
(SrO)1(NbO2)0.5(Mn2O3)0.25,5.384615385,800,0.000837678,0,,https://doi.org/10.1016/j.ssi.2013.01.005,E
(SrO)1(NbO2)0.5(Mn2O3)0.25,5.384615385,800,0.022854639,0,,https://doi.org/10.1016/j.ssi.2013.01.005,E
(SrO)1(NbO2)0.5(Mn2O3)0.25,5.153846154,800,0.388815518,0,,https://doi.org/10.1016/j.ssi.2013.01.005,E
(SrO)1(NbO2)0.5(Mn2O3)0.25,5.153846154,800,17.0125428,0,,https://doi.org/10.1016/j.ssi.2013.01.005,E
(BaO)1(SnO2)0.5(In2O3)0.25,0.030078082,797.1438849,20,1.9,,https://doi.org/10.1016/j.ssi.2017.05.010,H+E
(BaO)1(SnO2)0.5(In2O3)0.25,0.025499767,747.5831904,20,1.9,,https://doi.org/10.1016/j.ssi.2017.05.010,H+E
(BaO)1(SnO2)0.5(In2O3)0.25,0.016328395,697.6362153,20,1.9,,https://doi.org/10.1016/j.ssi.2017.05.010,H+E
(BaO)1(SnO2)0.5(In2O3)0.25,0.00905255,652.3499222,20,1.9,,https://doi.org/10.1016/j.ssi.2017.05.010,H+E
(BaO)1(SnO2)0.5(In2O3)0.25,0.006249055,603.2886598,20,1.9,,https://doi.org/10.1016/j.ssi.2017.05.010,H+E
(BaO)1(SnO2)0.5(In2O3)0.25,0.004656222,552.2427184,20,1.9,,https://doi.org/10.1016/j.ssi.2017.05.010,H+E
(BaO)1(SnO2)0.5(In2O3)0.25,0.003246455,500.7321196,20,1.9,,https://doi.org/10.1016/j.ssi.2017.05.010,H+E
(BaO)1(SnO2)0.5(In2O3)0.25,0.002115915,449.9647631,20,1.9,,https://doi.org/10.1016/j.ssi.2017.05.010,H+E
(BaO)1(SnO2)0.5(In2O3)0.25,0.001287969,400.8391846,20,1.9,,https://doi.org/10.1016/j.ssi.2017.05.010,H+E
(BaO)1(SnO2)0.5(In2O3)0.25,0.000685892,350.0366492,20,1.9,,https://doi.org/10.1016/j.ssi.2017.05.010,H+E
(La2O3)0.5(NiO)0.5(V2O3)0.25,6.919743557,800,3.66674E-13,0,,https://doi.org/10.1016/S0167-2738(01)00870-0,E
(La2O3)0.5(NiO)0.5(V2O3)0.25,5.016259555,800,3.17665E-14,0,,https://doi.org/10.1016/S0167-2738(01)00870-0,E
(La2O3)0.5(NiO)0.5(V2O3)0.25,3.730611288,800,3.02914E-15,0,,https://doi.org/10.1016/S0167-2738(01)00870-0,E
(La2O3)0.5(NiO)0.5(V2O3)0.25,2.420806072,800,5.81005E-16,0,,https://doi.org/10.1016/S0167-2738(01)00870-0,E
(La2O3)0.5(NiO)0.5(V2O3)0.25,0.784350179,800,6.62338E-18,0,,https://doi.org/10.1016/S0167-2738(01)00870-0,E
(La2O3)0.5(NiO)0.5(V2O3)0.25,5.40E-02,25,21,0,,https://doi.org/10.1016/S0167-2738(01)00870-0,E
(La2O3)0.5(NiO)0.5(V2O3)0.25,8.82E+00,800,21,0,,https://doi.org/10.1016/S0167-2738(01)00870-0,E
(La2O3)0.5(NiO)0.5(V2O3)0.25,7.90E-01,800,0,0,,https://doi.org/10.1016/S0167-2738(01)00870-0,E
(BaO)1(Fe2O3)0.375(NiO)0.25,9.238938053,100,20,0,,https://doi.org/10.1016/j.electacta.2018.09.096,O+E
(BaO)1(Fe2O3)0.375(NiO)0.25,12.42477876,152.8700906,20,0,,https://doi.org/10.1016/j.electacta.2018.09.096,O+E
(BaO)1(Fe2O3)0.375(NiO)0.25,15.82300885,203.6253776,20,0,,https://doi.org/10.1016/j.electacta.2018.09.096,O+E
(BaO)1(Fe2O3)0.375(NiO)0.25,16.88495575,248.0362538,20,0,,https://doi.org/10.1016/j.electacta.2018.09.096,O+E
(BaO)1(Fe2O3)0.375(NiO)0.25,17.59292035,292.4471299,20,0,,https://doi.org/10.1016/j.electacta.2018.09.096,O+E
(BaO)1(Fe2O3)0.375(NiO)0.25,18.37168142,351.6616314,20,0,,https://doi.org/10.1016/j.electacta.2018.09.096,O+E
(BaO)1(Fe2O3)0.375(NiO)0.25,17.94690265,402.4169184,20,0,,https://doi.org/10.1016/j.electacta.2018.09.096,O+E
(BaO)1(Fe2O3)0.375(NiO)0.25,16.95575221,444.7129909,20,0,,https://doi.org/10.1016/j.electacta.2018.09.096,E
(BaO)1(Fe2O3)0.375(NiO)0.25,15.53982301,499.6978852,20,0,,https://doi.org/10.1016/j.electacta.2018.09.096,E
(BaO)1(Fe2O3)0.375(NiO)0.25,13.91150442,554.6827795,20,0,,https://doi.org/10.1016/j.electacta.2018.09.096,E
(BaO)1(Fe2O3)0.375(NiO)0.25,12.3539823,596.978852,20,0,,https://doi.org/10.1016/j.electacta.2018.09.096,E
(BaO)1(Fe2O3)0.375(NiO)0.25,11.36283186,624.4712991,20,0,,https://doi.org/10.1016/j.electacta.2018.09.096,E
(BaO)1(Fe2O3)0.375(NiO)0.25,10.37168142,649.8489426,20,0,,https://doi.org/10.1016/j.electacta.2018.09.096,E
(BaO)1(Fe2O3)0.375(NiO)0.25,7.96460177,702.7190332,20,0,,https://doi.org/10.1016/j.electacta.2018.09.096,E
(BaO)1(Fe2O3)0.375(NiO)0.25,6.123893805,749.244713,20,0,,https://doi.org/10.1016/j.electacta.2018.09.096,E
(SrO)1(Fe2O3)0.375(MoO2)0.25,10,297.8494624,20,0,,https://doi.org/10.1016/j.ceramint.2019.03.130,O+E
(SrO)1(Fe2O3)0.375(MoO2)0.25,12.44897959,347.1582181,20,0,,https://doi.org/10.1016/j.ceramint.2019.03.130,O+E
(SrO)1(Fe2O3)0.375(MoO2)0.25,14.08163265,396.5898618,20,0,,https://doi.org/10.1016/j.ceramint.2019.03.130,O+E
(SrO)1(Fe2O3)0.375(MoO2)0.25,15.30612245,448.3410138,20,0,,https://doi.org/10.1016/j.ceramint.2019.03.130,O+E
(SrO)1(Fe2O3)0.375(MoO2)0.25,15.91836735,497.9262673,20,0,,https://doi.org/10.1016/j.ceramint.2019.03.130,O+E
(SrO)1(Fe2O3)0.375(MoO2)0.25,16.73469388,547.4807988,20,0,,https://doi.org/10.1016/j.ceramint.2019.03.130,O+E
(SrO)1(Fe2O3)0.375(MoO2)0.25,17.55102041,597.0353303,20,0,,https://doi.org/10.1016/j.ceramint.2019.03.130,E
(SrO)1(Fe2O3)0.375(MoO2)0.25,16.73469388,649.093702,20,0,,https://doi.org/10.1016/j.ceramint.2019.03.130,E
(SrO)1(Fe2O3)0.375(MoO2)0.25,15.71428571,698.9247312,20,0,,https://doi.org/10.1016/j.ceramint.2019.03.130,E
(SrO)1(Fe2O3)0.375(MoO2)0.25,14.48979592,748.7864823,20,0,,https://doi.org/10.1016/j.ceramint.2019.03.130,E
(SrO)1(Fe2O3)0.375(MoO2)0.25,13.26530612,798.6482335,20,0,,https://doi.org/10.1016/j.ceramint.2019.03.130,E
(SrO)1(Fe2O3)0.375(MoO2)0.25,2.370817473,299.1797935,0,3,,https://doi.org/10.1016/j.ceramint.2019.03.130,O+E
(SrO)1(Fe2O3)0.375(MoO2)0.25,3.556962292,347.6729269,0,3,,https://doi.org/10.1016/j.ceramint.2019.03.130,O+E
(SrO)1(Fe2O3)0.375(MoO2)0.25,4.742476182,398.3743086,0,3,,https://doi.org/10.1016/j.ceramint.2019.03.130,O+E
(SrO)1(Fe2O3)0.375(MoO2)0.25,5.927990073,449.0756903,0,3,,https://doi.org/10.1016/j.ceramint.2019.03.130,O+E
(SrO)1(Fe2O3)0.375(MoO2)0.25,7.312877242,501.9705988,0,3,,https://doi.org/10.1016/j.ceramint.2019.03.130,O+E
(SrO)1(Fe2O3)0.375(MoO2)0.25,9.299038886,550.4048455,0,3,,https://doi.org/10.1016/j.ceramint.2019.03.130,O+E
(SrO)1(Fe2O3)0.375(MoO2)0.25,11.08519632,598.853814,0,3,,https://doi.org/10.1016/j.ceramint.2019.03.130,O+E
(SrO)1(Fe2O3)0.375(MoO2)0.25,13.07072704,649.4963091,0,3,,https://doi.org/10.1016/j.ceramint.2019.03.130,O+E
(SrO)1(Fe2O3)0.375(MoO2)0.25,14.25624093,700.1976908,0,3,,https://doi.org/10.1016/j.ceramint.2019.03.130,O+E
(SrO)1(Fe2O3)0.375(MoO2)0.25,15.64238996,748.6761025,0,3,,https://doi.org/10.1016/j.ceramint.2019.03.130,O+E
(SrO)1(Fe2O3)0.375(MoO2)0.25,17.02727712,801.571011,0,3,,https://doi.org/10.1016/j.ceramint.2019.03.130,O+E
(BaO)1(ZrO2)0.8(YbO)0.2,0.001076653,598.7855189,0,1.9,,https://doi.org/10.1016/j.jallcom.2018.08.329,H
(BaO)1(ZrO2)0.8(YbO)0.2,0.00091228,574.8183753,0,1.9,,https://doi.org/10.1016/j.jallcom.2018.08.329,H
(BaO)1(ZrO2)0.8(YbO)0.2,0.000772963,550.7118732,0,1.9,,https://doi.org/10.1016/j.jallcom.2018.08.329,H
(BaO)1(ZrO2)0.8(YbO)0.2,0.000655118,525.2631931,0,1.9,,https://doi.org/10.1016/j.jallcom.2018.08.329,H
(BaO)1(ZrO2)0.8(YbO)0.2,0.000555239,500.087498,0,1.9,,https://doi.org/10.1016/j.jallcom.2018.08.329,H
(BaO)1(ZrO2)0.8(YbO)0.2,0.000459566,475.2780213,0,1.9,,https://doi.org/10.1016/j.jallcom.2018.08.329,H
(BaO)1(ZrO2)0.8(YbO)0.2,0.000389637,449.8186905,0,1.9,,https://doi.org/10.1016/j.jallcom.2018.08.329,H
(BaO)1(ZrO2)0.8(YbO)0.2,0.000322579,423.9962088,0,1.9,,https://doi.org/10.1016/j.jallcom.2018.08.329,H
(BaO)1(ZrO2)0.8(YbO)0.2,0.000267129,399.4817107,0,1.9,,https://doi.org/10.1016/j.jallcom.2018.08.329,H
(BaO)1(ZrO2)0.8(YbO)0.2,0.000215996,374.4332927,0,1.9,,https://doi.org/10.1016/j.jallcom.2018.08.329,H
(BaO)1(ZrO2)0.8(YbO)0.2,0.00016654,349.5579578,0,1.9,,https://doi.org/10.1016/j.jallcom.2018.08.329,H
(CaO)1(TiO2)0.6(Fe2O3)0.2,0.223389278,979.0614212,2.00E+01,0,,https://doi.org/10.1016/0167-2738(92)90095-7,O+E
(CaO)1(TiO2)0.6(Fe2O3)0.2,0.157309606,861.5436777,2.00E+01,0,,https://doi.org/10.1016/0167-2738(92)90095-7,O+E
(CaO)1(TiO2)0.6(Fe2O3)0.2,0.114614568,742.2981407,2.00E+01,0,,https://doi.org/10.1016/0167-2738(92)90095-7,O+E
(CaO)1(TiO2)0.6(Fe2O3)0.2,0.063148,617.6280258,2.00E+01,0,,https://doi.org/10.1016/0167-2738(92)90095-7,O+E
(CaO)1(TiO2)0.6(Fe2O3)0.2,0.032446235,515.9350177,2.00E+01,0,,https://doi.org/10.1016/0167-2738(92)90095-7,O+E
(CaO)1(TiO2)0.6(Fe2O3)0.2,0.01449205,421.5335846,2.00E+01,0,,https://doi.org/10.1016/0167-2738(92)90095-7,O+E
(CaO)1(TiO2)0.6(Fe2O3)0.2,0.007711597,360.8522783,2.00E+01,0,,https://doi.org/10.1016/0167-2738(92)90095-7,O+E
(CaO)1(TiO2)0.6(Fe2O3)0.2,0.004890628,325.5623791,2.00E+01,0,,https://doi.org/10.1016/0167-2738(92)90095-7,O+E
(BaO)1(In2O3)0.4(SnO2)0.2,0.040754651,800.7179487,20,0,,https://doi.org/10.1016/j.jssc.2018.03.004,H
(BaO)1(In2O3)0.4(SnO2)0.2,0.028377417,748.3414634,20,0,,https://doi.org/10.1016/j.jssc.2018.03.004,H
(BaO)1(In2O3)0.4(SnO2)0.2,0.018189126,698.0144928,20,0,,https://doi.org/10.1016/j.jssc.2018.03.004,H
(BaO)1(In2O3)0.4(SnO2)0.2,0.011224522,647.3296703,20,0,,https://doi.org/10.1016/j.jssc.2018.03.004,H
(BaO)1(In2O3)0.4(SnO2)0.2,0.00586037,599.3958333,20,0,,https://doi.org/10.1016/j.jssc.2018.03.004,H
(BaO)1(In2O3)0.4(SnO2)0.2,0.001862415,550.0958231,20,0,,https://doi.org/10.1016/j.jssc.2018.03.004,H
(BaO)1(In2O3)0.4(SnO2)0.2,0.000596463,498.8894009,20,0,,https://doi.org/10.1016/j.jssc.2018.03.004,H
(BaO)1(In2O3)0.4(SnO2)0.2,0.000199448,450.5421166,20,0,,https://doi.org/10.1016/j.jssc.2018.03.004,H
(BaO)1(In2O3)0.4(SnO2)0.2,7.31189E-05,401.0442656,20,0,,https://doi.org/10.1016/j.jssc.2018.03.004,H
(BaO)1(In2O3)0.4(SnO2)0.2,2.48767E-05,350.8361266,20,0,,https://doi.org/10.1016/j.jssc.2018.03.004,H
(BaO)1(In2O3)0.4(SnO2)0.2,0.043480428,803.8732466,20,3,,https://doi.org/10.1016/j.jssc.2018.03.004,H
(BaO)1(In2O3)0.4(SnO2)0.2,0.032600097,751.081039,20,3,,https://doi.org/10.1016/j.jssc.2018.03.004,H
(BaO)1(In2O3)0.4(SnO2)0.2,0.024383665,703.2230661,20,3,,https://doi.org/10.1016/j.jssc.2018.03.004,H
(BaO)1(In2O3)0.4(SnO2)0.2,0.015472236,654.4274736,20,3,,https://doi.org/10.1016/j.jssc.2018.03.004,H
(BaO)1(In2O3)0.4(SnO2)0.2,0.009482837,601.0487438,20,3,,https://doi.org/10.1016/j.jssc.2018.03.004,H
(BaO)1(In2O3)0.4(SnO2)0.2,0.004144418,553.4059685,20,3,,https://doi.org/10.1016/j.jssc.2018.03.004,H
(BaO)1(In2O3)0.4(SnO2)0.2,0.001682101,499.8243506,20,3,,https://doi.org/10.1016/j.jssc.2018.03.004,H
(BaO)1(In2O3)0.4(SnO2)0.2,0.0008069,449.6649321,20,3,,https://doi.org/10.1016/j.jssc.2018.03.004,H
(BaO)1(In2O3)0.4(SnO2)0.2,0.000342423,400.1465977,20,3,,https://doi.org/10.1016/j.jssc.2018.03.004,H
(BaO)1(In2O3)0.4(SnO2)0.2,0.000123356,351.0896722,20,3,,https://doi.org/10.1016/j.jssc.2018.03.004,H
(BaO)1(SnO2)0.625(Y2O3)0.1875,0.002035366,834.3355668,0,2.40E+00,0.05,https://doi.org/10.1016/j.ssi.2012.02.045,H
(BaO)1(SnO2)0.625(Y2O3)0.1875,0.001433801,791.0728267,0,2.40E+00,0.05,https://doi.org/10.1016/j.ssi.2012.02.045,H
(BaO)1(SnO2)0.625(Y2O3)0.1875,0.001238307,743.8476242,0,2.40E+00,0.05,https://doi.org/10.1016/j.ssi.2012.02.045,H
(BaO)1(SnO2)0.625(Y2O3)0.1875,0.001178084,700.620576,0,2.40E+00,0.05,https://doi.org/10.1016/j.ssi.2012.02.045,H
(BaO)1(SnO2)0.625(Y2O3)0.1875,0.001016082,658.9323455,0,2.40E+00,0.05,https://doi.org/10.1016/j.ssi.2012.02.045,H
(BaO)1(SnO2)0.625(Y2O3)0.1875,0.000972269,615.1803233,0,2.40E+00,0.05,https://doi.org/10.1016/j.ssi.2012.02.045,H
(BaO)1(SnO2)0.625(Y2O3)0.1875,0.000930369,573.7008923,0,2.40E+00,0.05,https://doi.org/10.1016/j.ssi.2012.02.045,H
(BaO)1(SnO2)0.625(Y2O3)0.1875,0.000901685,525.5281343,0,2.40E+00,0.05,https://doi.org/10.1016/j.ssi.2012.02.045,H
(BaO)1(SnO2)0.625(Y2O3)0.1875,0.000715022,482.5605872,0,2.40E+00,0.05,https://doi.org/10.1016/j.ssi.2012.02.045,H
(BaO)1(SnO2)0.625(Y2O3)0.1875,0.000574116,434.6498049,0,2.40E+00,0.05,https://doi.org/10.1016/j.ssi.2012.02.045,H
(BaO)1(SnO2)0.625(Y2O3)0.1875,0.000380303,387.4157234,0,2.40E+00,0.05,https://doi.org/10.1016/j.ssi.2012.02.045,H
(BaO)1(SnO2)0.625(Y2O3)0.1875,0.000199312,337.420462,0,2.40E+00,0.05,https://doi.org/10.1016/j.ssi.2012.02.045,H
(BaO)1(SnO2)0.625(Y2O3)0.1875,9.58963E-05,285.7207875,0,2.40E+00,0.05,https://doi.org/10.1016/j.ssi.2012.02.045,H
(BaO)1(CeO2)0.85(YbO)0.15,0.034997954,799.3626853,0,4,,https://doi.org/10.1016/j.electacta.2013.05.034,H
(BaO)1(CeO2)0.85(YbO)0.15,0.02929908,749.4438903,0,4,,https://doi.org/10.1016/j.electacta.2013.05.034,H
(BaO)1(CeO2)0.85(YbO)0.15,0.023630199,699.3320158,0,4,,https://doi.org/10.1016/j.electacta.2013.05.034,H
(BaO)1(CeO2)0.85(YbO)0.15,0.019618256,649.7306827,0,4,,https://doi.org/10.1016/j.electacta.2013.05.034,H
(BaO)1(CeO2)0.85(YbO)0.15,0.016341387,599.9595458,0,4,,https://doi.org/10.1016/j.electacta.2013.05.034,H
(BaO)1(CeO2)0.85(YbO)0.15,0.012283094,549.7424749,0,4,,https://doi.org/10.1016/j.electacta.2013.05.034,H
(BaO)1(CeO2)0.85(YbO)0.15,0.009018806,500.0986801,0,4,,https://doi.org/10.1016/j.electacta.2013.05.034,H
(BaO)1(CeO2)0.85(YbO)0.15,0.034757369,799.3626853,20,0,,https://doi.org/10.1016/j.electacta.2013.05.034,H
(BaO)1(CeO2)0.85(YbO)0.15,0.029438322,749.4438903,20,0,,https://doi.org/10.1016/j.electacta.2013.05.034,H
(BaO)1(CeO2)0.85(YbO)0.15,0.024954519,699.3320158,20,0,,https://doi.org/10.1016/j.electacta.2013.05.034,H
(BaO)1(CeO2)0.85(YbO)0.15,0.020390606,649.7306827,20,0,,https://doi.org/10.1016/j.electacta.2013.05.034,H
(BaO)1(CeO2)0.85(YbO)0.15,0.016243944,599.9595458,20,0,,https://doi.org/10.1016/j.electacta.2013.05.034,H
(BaO)1(CeO2)0.85(YbO)0.15,0.012989737,549.7424749,20,0,,https://doi.org/10.1016/j.electacta.2013.05.034,H
(BaO)1(CeO2)0.85(YbO)0.15,0.008877262,500.0986801,20,0,,https://doi.org/10.1016/j.electacta.2013.05.034,H
(BaO)1(ZrO2)0.85(YbO)0.15,0.00080814,598.7855189,0,1.9,,https://doi.org/10.1016/j.jallcom.2018.08.329,H
(BaO)1(ZrO2)0.85(YbO)0.15,0.000668621,574.8183753,0,1.9,,https://doi.org/10.1016/j.jallcom.2018.08.329,H
(BaO)1(ZrO2)0.85(YbO)0.15,0.000553133,550.7118732,0,1.9,,https://doi.org/10.1016/j.jallcom.2018.08.329,H
(BaO)1(ZrO2)0.85(YbO)0.15,0.000468756,525.2631931,0,1.9,,https://doi.org/10.1016/j.jallcom.2018.08.329,H
(BaO)1(ZrO2)0.85(YbO)0.15,0.00039733,500.087498,0,1.9,,https://doi.org/10.1016/j.jallcom.2018.08.329,H
(BaO)1(ZrO2)0.85(YbO)0.15,0.000328833,475.2780213,0,1.9,,https://doi.org/10.1016/j.jallcom.2018.08.329,H
(BaO)1(ZrO2)0.85(YbO)0.15,0.000272226,449.8186905,0,1.9,,https://doi.org/10.1016/j.jallcom.2018.08.329,H
(BaO)1(ZrO2)0.85(YbO)0.15,0.000214865,423.9962088,0,1.9,,https://doi.org/10.1016/j.jallcom.2018.08.329,H
(BaO)1(ZrO2)0.85(YbO)0.15,0.000169608,399.4817107,0,1.9,,https://doi.org/10.1016/j.jallcom.2018.08.329,H
(BaO)1(ZrO2)0.85(YbO)0.15,0.000121712,374.4332927,0,1.9,,https://doi.org/10.1016/j.jallcom.2018.08.329,H
(BaO)1(ZrO2)0.85(YbO)0.15,9.38437E-05,349.5579578,0,1.9,,https://doi.org/10.1016/j.jallcom.2018.08.329,H
(SrO)0.925(TiO2)0.85(NbO2)0.15,3.231721758,930,1.91113E-18,0,,https://doi.org/10.1039/A702865B,E
(SrO)0.925(TiO2)0.85(NbO2)0.15,3.231721758,930,5.25837E-18,0,,https://doi.org/10.1039/A702865B,E