Composition,Conductivity (S/cm),Temperature (degC),PO2 (%),PH2O (%),Grainsize,Ref,Carrier Type
(SrO)0.6(La2O3)0.1(TiO2)0.8(NbO2)0.2,0.014583564,930,104.9836632,0,,https://doi.org/10.1039/A702865B,E
(BaO)1(ZrO2)0.3(CeO2)0.5(YbO)0.2,0.009255806,800,0,2,,https://doi.org/10.1016/j.jpowsour.2013.07.060,H
(BaO)1(ZrO2)0.3(CeO2)0.5(YbO)0.2,0.007805129,750,0,2,,https://doi.org/10.1016/j.jpowsour.2013.07.060,H
(BaO)1(ZrO2)0.3(CeO2)0.5(YbO)0.2,0.00665636,700,0,2,,https://doi.org/10.1016/j.jpowsour.2013.07.060,H
(BaO)1(ZrO2)0.3(CeO2)0.5(YbO)0.2,0.006001823,650,0,2,,https://doi.org/10.1016/j.jpowsour.2013.07.060,H
(BaO)1(ZrO2)0.3(CeO2)0.5(YbO)0.2,0.005546074,600,0,2,,https://doi.org/10.1016/j.jpowsour.2013.07.060,H
(BaO)1(ZrO2)0.3(CeO2)0.5(YbO)0.2,0.005147999,550,0,2,,https://doi.org/10.1016/j.jpowsour.2013.07.060,H
(BaO)1(ZrO2)0.3(CeO2)0.5(YbO)0.2,0.004518881,500,0,2,,https://doi.org/10.1016/j.jpowsour.2013.07.060,H
(BaO)1(ZrO2)0.3(CeO2)0.5(YbO)0.2,0.003172354,450,0,2,,https://doi.org/10.1016/j.jpowsour.2013.07.060,H
(BaO)1(ZrO2)0.3(CeO2)0.5(YbO)0.2,0.002029077,400,0,2,,https://doi.org/10.1016/j.jpowsour.2013.07.060,H
(BaO)0.5(SrO2)0.5(Fe2O3)0.4(CuO)0.2,37.68292683,399.2742415,20,0,,https://doi.org/10.1016/j.jpowsour.2009.09.078,O+E
(BaO)0.5(SrO2)0.5(Fe2O3)0.4(CuO)0.2,42.43902439,450.1606187,20,0,,https://doi.org/10.1016/j.jpowsour.2009.09.078,O+E
(BaO)0.5(SrO2)0.5(Fe2O3)0.4(CuO)0.2,47.92682927,499.1195717,20,0,,https://doi.org/10.1016/j.jpowsour.2009.09.078,O+E
(BaO)0.5(SrO2)0.5(Fe2O3)0.4(CuO)0.2,53.41463415,550.0297442,20,0,,https://doi.org/10.1016/j.jpowsour.2009.09.078,O+E
(BaO)0.5(SrO2)0.5(Fe2O3)0.4(CuO)0.2,57.43902439,600.892326,20,0,,https://doi.org/10.1016/j.jpowsour.2009.09.078,O+E
(BaO)0.5(SrO2)0.5(Fe2O3)0.4(CuO)0.2,45.36585366,651.2314099,20,0,,https://doi.org/10.1016/j.jpowsour.2009.09.078,E
(BaO)0.5(SrO2)0.5(Fe2O3)0.4(CuO)0.2,33.29268293,699.6192742,20,0,,https://doi.org/10.1016/j.jpowsour.2009.09.078,E
(BaO)0.5(SrO2)0.5(Fe2O3)0.4(CuO)0.2,26.70731707,750.1368233,20,0,,https://doi.org/10.1016/j.jpowsour.2009.09.078,E
(BaO)0.5(SrO2)0.5(Fe2O3)0.4(CuO)0.2,21.58536585,798.7507436,20,0,,https://doi.org/10.1016/j.jpowsour.2009.09.078,E
(Bi2O3)0.25(SrO)0.5(Fe2O3)0.4(CuO)0.2,5.054008642,813.196855,20,0,,https://doi.org/10.1016/j.jallcom.2017.01.026,O+E
(Bi2O3)0.25(SrO)0.5(Fe2O3)0.4(CuO)0.2,4.498047511,767.7366071,20,0,,https://doi.org/10.1016/j.jallcom.2017.01.026,O+E
(Bi2O3)0.25(SrO)0.5(Fe2O3)0.4(CuO)0.2,3.820024217,717.9670563,20,0,,https://doi.org/10.1016/j.jallcom.2017.01.026,O+E
(Bi2O3)0.25(SrO)0.5(Fe2O3)0.4(CuO)0.2,3.260629732,649.3541048,20,0,,https://doi.org/10.1016/j.jallcom.2017.01.026,O+E
(Bi2O3)0.25(SrO)0.5(Fe2O3)0.4(CuO)0.2,2.921122421,620.6272161,20,0,,https://doi.org/10.1016/j.jallcom.2017.01.026,O+E
(Bi2O3)0.25(SrO)0.5(Fe2O3)0.4(CuO)0.2,2.389259383,579.7663466,20,0,,https://doi.org/10.1016/j.jallcom.2017.01.026,O+E
(Bi2O3)0.25(SrO)0.5(Fe2O3)0.4(CuO)0.2,2.056495548,542.4787932,20,0,,https://doi.org/10.1016/j.jallcom.2017.01.026,O+E
(Bi2O3)0.25(SrO)0.5(Fe2O3)0.4(CuO)0.2,1.818848984,513.2563238,20,0,,https://doi.org/10.1016/j.jallcom.2017.01.026,O+E
(Bi2O3)0.25(SrO)0.5(Fe2O3)0.4(CuO)0.2,1.529718682,482.9789218,20,0,,https://doi.org/10.1016/j.jallcom.2017.01.026,O+E
(Bi2O3)0.25(SrO)0.5(Fe2O3)0.4(CuO)0.2,1.30720565,442.3816647,20,0,,https://doi.org/10.1016/j.jallcom.2017.01.026,O+E
(Bi2O3)0.25(SrO)0.5(Fe2O3)0.4(CuO)0.2,1.046626161,412.1579721,20,0,,https://doi.org/10.1016/j.jallcom.2017.01.026,O+E
(Bi2O3)0.25(SrO)0.5(Fe2O3)0.4(CuO)0.2,0.820209444,374.1200555,20,0,,https://doi.org/10.1016/j.jallcom.2017.01.026,O+E
(Bi2O3)0.25(SrO)0.5(Fe2O3)0.4(CuO)0.2,0.687802635,340.0834977,20,0,,https://doi.org/10.1016/j.jallcom.2017.01.026,O+E
(Bi2O3)0.25(SrO)0.5(Fe2O3)0.4(CuO)0.2,0.501010292,317.7507127,20,0,,https://doi.org/10.1016/j.jallcom.2017.01.026,O+E
(Bi2O3)0.25(SrO)0.5(Fe2O3)0.4(CuO)0.2,0.42478551,300.4932349,20,0,,https://doi.org/10.1016/j.jallcom.2017.01.026,O+E
(Pr2O3)0.25(SrO)0.5(Fe2O3)0.4(CuO)0.2,91.39896373,98.49056604,2.00E+01,0.00E+00,,https://doi.org/10.1007/s11581-019-03314-9,O+E
(Pr2O3)0.25(SrO)0.5(Fe2O3)0.4(CuO)0.2,108.8082902,149.4339623,2.00E+01,0.00E+00,,https://doi.org/10.1007/s11581-019-03314-9,O+E
(Pr2O3)0.25(SrO)0.5(Fe2O3)0.4(CuO)0.2,121.1398964,200.3773585,2.00E+01,0.00E+00,,https://doi.org/10.1007/s11581-019-03314-9,O+E
(Pr2O3)0.25(SrO)0.5(Fe2O3)0.4(CuO)0.2,131.2953368,247.9245283,2.00E+01,0.00E+00,,https://doi.org/10.1007/s11581-019-03314-9,O+E
(Pr2O3)0.25(SrO)0.5(Fe2O3)0.4(CuO)0.2,136.373057,298.8679245,2.00E+01,0.00E+00,,https://doi.org/10.1007/s11581-019-03314-9,O+E
(Pr2O3)0.25(SrO)0.5(Fe2O3)0.4(CuO)0.2,139.2746114,349.8113208,2.00E+01,0.00E+00,,https://doi.org/10.1007/s11581-019-03314-9,O+E
(Pr2O3)0.25(SrO)0.5(Fe2O3)0.4(CuO)0.2,135.6476684,400.754717,2.00E+01,0.00E+00,,https://doi.org/10.1007/s11581-019-03314-9,O+E
(Pr2O3)0.25(SrO)0.5(Fe2O3)0.4(CuO)0.2,128.3937824,451.6981132,2.00E+01,0.00E+00,,https://doi.org/10.1007/s11581-019-03314-9,O+E
(Pr2O3)0.25(SrO)0.5(Fe2O3)0.4(CuO)0.2,116.0621762,499.245283,2.00E+01,0.00E+00,,https://doi.org/10.1007/s11581-019-03314-9,O+E
(Pr2O3)0.25(SrO)0.5(Fe2O3)0.4(CuO)0.2,103.7305699,546.7924528,2.00E+01,0.00E+00,,https://doi.org/10.1007/s11581-019-03314-9,E
(Pr2O3)0.25(SrO)0.5(Fe2O3)0.4(CuO)0.2,92.12435233,597.7358491,2.00E+01,0.00E+00,,https://doi.org/10.1007/s11581-019-03314-9,E
(Pr2O3)0.25(SrO)0.5(Fe2O3)0.4(CuO)0.2,80.51813472,648.6792453,2.00E+01,0.00E+00,,https://doi.org/10.1007/s11581-019-03314-9,E
(Pr2O3)0.25(SrO)0.5(Fe2O3)0.4(CuO)0.2,70.3626943,696.2264151,2.00E+01,0.00E+00,,https://doi.org/10.1007/s11581-019-03314-9,E
(Pr2O3)0.25(SrO)0.5(Fe2O3)0.4(CuO)0.2,60.20725389,747.1698113,2.00E+01,0.00E+00,,https://doi.org/10.1007/s11581-019-03314-9,E
(Pr2O3)0.25(SrO)0.5(Fe2O3)0.4(CuO)0.2,51.50259067,798.1132075,2.00E+01,0.00E+00,,https://doi.org/10.1007/s11581-019-03314-9,E
(Pr2O3)0.25(SrO)0.5(Fe2O3)0.4(CuO)0.2,43.52331606,852.4528302,2.00E+01,0.00E+00,,https://doi.org/10.1007/s11581-019-03314-9,E
(Nd2O3)0.25(SrO)0.5(Fe2O3)0.4(CuO)0.2,58.75647668,98.49056604,2.00E+01,0.00E+00,,https://doi.org/10.1007/s11581-019-03314-9,O+E
(Nd2O3)0.25(SrO)0.5(Fe2O3)0.4(CuO)0.2,72.5388601,149.4339623,2.00E+01,0.00E+00,,https://doi.org/10.1007/s11581-019-03314-9,O+E
(Nd2O3)0.25(SrO)0.5(Fe2O3)0.4(CuO)0.2,82.69430052,200.3773585,2.00E+01,0.00E+00,,https://doi.org/10.1007/s11581-019-03314-9,O+E
(Nd2O3)0.25(SrO)0.5(Fe2O3)0.4(CuO)0.2,91.39896373,247.9245283,2.00E+01,0.00E+00,,https://doi.org/10.1007/s11581-019-03314-9,O+E
(Nd2O3)0.25(SrO)0.5(Fe2O3)0.4(CuO)0.2,97.20207254,295.4716981,2.00E+01,0.00E+00,,https://doi.org/10.1007/s11581-019-03314-9,O+E
(Nd2O3)0.25(SrO)0.5(Fe2O3)0.4(CuO)0.2,100.1036269,346.4150943,2.00E+01,0.00E+00,,https://doi.org/10.1007/s11581-019-03314-9,O+E
(Nd2O3)0.25(SrO)0.5(Fe2O3)0.4(CuO)0.2,100.8290155,393.9622642,2.00E+01,0.00E+00,,https://doi.org/10.1007/s11581-019-03314-9,E
(Nd2O3)0.25(SrO)0.5(Fe2O3)0.4(CuO)0.2,93.57512953,448.3018868,2.00E+01,0.00E+00,,https://doi.org/10.1007/s11581-019-03314-9,E
(Nd2O3)0.25(SrO)0.5(Fe2O3)0.4(CuO)0.2,84.87046632,499.245283,2.00E+01,0.00E+00,,https://doi.org/10.1007/s11581-019-03314-9,E
(Nd2O3)0.25(SrO)0.5(Fe2O3)0.4(CuO)0.2,75.44041451,546.7924528,2.00E+01,0.00E+00,,https://doi.org/10.1007/s11581-019-03314-9,E
(Nd2O3)0.25(SrO)0.5(Fe2O3)0.4(CuO)0.2,67.4611399,601.1320755,2.00E+01,0.00E+00,,https://doi.org/10.1007/s11581-019-03314-9,E
(Nd2O3)0.25(SrO)0.5(Fe2O3)0.4(CuO)0.2,58.75647668,648.6792453,2.00E+01,0.00E+00,,https://doi.org/10.1007/s11581-019-03314-9,E
(Nd2O3)0.25(SrO)0.5(Fe2O3)0.4(CuO)0.2,51.50259067,699.6226415,2.00E+01,0.00E+00,,https://doi.org/10.1007/s11581-019-03314-9,E
(Nd2O3)0.25(SrO)0.5(Fe2O3)0.4(CuO)0.2,44.24870466,750.5660377,2.00E+01,0.00E+00,,https://doi.org/10.1007/s11581-019-03314-9,E
(Nd2O3)0.25(SrO)0.5(Fe2O3)0.4(CuO)0.2,38.44559585,794.7169811,2.00E+01,0.00E+00,,https://doi.org/10.1007/s11581-019-03314-9,E
(Nd2O3)0.25(SrO)0.5(Fe2O3)0.4(CuO)0.2,32.64248705,849.0566038,2.00E+01,0.00E+00,,https://doi.org/10.1007/s11581-019-03314-9,E
(Sm2O3)0.25(SrO)0.5(Fe2O3)0.4(CuO)0.2,29.01554404,98.49056604,2.00E+01,0.00E+00,,https://doi.org/10.1007/s11581-019-03314-9,E
(Sm2O3)0.25(SrO)0.5(Fe2O3)0.4(CuO)0.2,42.79792746,149.4339623,2.00E+01,0.00E+00,,https://doi.org/10.1007/s11581-019-03314-9,O+E
(Sm2O3)0.25(SrO)0.5(Fe2O3)0.4(CuO)0.2,54.40414508,200.3773585,2.00E+01,0.00E+00,,https://doi.org/10.1007/s11581-019-03314-9,O+E
(Sm2O3)0.25(SrO)0.5(Fe2O3)0.4(CuO)0.2,66.7357513,241.1320755,2.00E+01,0.00E+00,,https://doi.org/10.1007/s11581-019-03314-9,O+E
(Sm2O3)0.25(SrO)0.5(Fe2O3)0.4(CuO)0.2,76.16580311,302.2641509,2.00E+01,0.00E+00,,https://doi.org/10.1007/s11581-019-03314-9,O+E
(Sm2O3)0.25(SrO)0.5(Fe2O3)0.4(CuO)0.2,81.96891192,349.8113208,2.00E+01,0.00E+00,,https://doi.org/10.1007/s11581-019-03314-9,O+E
(Sm2O3)0.25(SrO)0.5(Fe2O3)0.4(CuO)0.2,83.41968912,397.3584906,2.00E+01,0.00E+00,,https://doi.org/10.1007/s11581-019-03314-9,E
(Sm2O3)0.25(SrO)0.5(Fe2O3)0.4(CuO)0.2,78.34196891,448.3018868,2.00E+01,0.00E+00,,https://doi.org/10.1007/s11581-019-03314-9,E
(Sm2O3)0.25(SrO)0.5(Fe2O3)0.4(CuO)0.2,70.3626943,492.4528302,2.00E+01,0.00E+00,,https://doi.org/10.1007/s11581-019-03314-9,E
(Sm2O3)0.25(SrO)0.5(Fe2O3)0.4(CuO)0.2,63.10880829,550.1886792,2.00E+01,0.00E+00,,https://doi.org/10.1007/s11581-019-03314-9,E
(Sm2O3)0.25(SrO)0.5(Fe2O3)0.4(CuO)0.2,56.58031088,597.7358491,2.00E+01,0.00E+00,,https://doi.org/10.1007/s11581-019-03314-9,E
(Sm2O3)0.25(SrO)0.5(Fe2O3)0.4(CuO)0.2,49.32642487,648.6792453,2.00E+01,0.00E+00,,https://doi.org/10.1007/s11581-019-03314-9,E
(Sm2O3)0.25(SrO)0.5(Fe2O3)0.4(CuO)0.2,42.79792746,696.2264151,2.00E+01,0.00E+00,,https://doi.org/10.1007/s11581-019-03314-9,E
(Sm2O3)0.25(SrO)0.5(Fe2O3)0.4(CuO)0.2,36.99481865,747.1698113,2.00E+01,0.00E+00,,https://doi.org/10.1007/s11581-019-03314-9,E
(Sm2O3)0.25(SrO)0.5(Fe2O3)0.4(CuO)0.2,34.09326425,798.1132075,2.00E+01,0.00E+00,,https://doi.org/10.1007/s11581-019-03314-9,E
(Sm2O3)0.25(SrO)0.5(Fe2O3)0.4(CuO)0.2,29.74093264,845.6603774,2.00E+01,0.00E+00,,https://doi.org/10.1007/s11581-019-03314-9,E
(Gd2O3)0.25(SrO)0.5(Fe2O3)0.4(CuO)0.2,6.528497409,98.49056604,2.00E+01,0.00E+00,,https://doi.org/10.1007/s11581-019-03314-9,O+E
(Gd2O3)0.25(SrO)0.5(Fe2O3)0.4(CuO)0.2,13.05699482,152.8301887,2.00E+01,0.00E+00,,https://doi.org/10.1007/s11581-019-03314-9,O+E
(Gd2O3)0.25(SrO)0.5(Fe2O3)0.4(CuO)0.2,18.13471503,200.3773585,2.00E+01,0.00E+00,,https://doi.org/10.1007/s11581-019-03314-9,O+E
(Gd2O3)0.25(SrO)0.5(Fe2O3)0.4(CuO)0.2,26.11398964,251.3207547,2.00E+01,0.00E+00,,https://doi.org/10.1007/s11581-019-03314-9,O+E
(Gd2O3)0.25(SrO)0.5(Fe2O3)0.4(CuO)0.2,31.19170984,302.2641509,2.00E+01,0.00E+00,,https://doi.org/10.1007/s11581-019-03314-9,O+E
(Gd2O3)0.25(SrO)0.5(Fe2O3)0.4(CuO)0.2,36.99481865,353.2075472,2.00E+01,0.00E+00,,https://doi.org/10.1007/s11581-019-03314-9,E
(Gd2O3)0.25(SrO)0.5(Fe2O3)0.4(CuO)0.2,37.72020725,400.754717,2.00E+01,0.00E+00,,https://doi.org/10.1007/s11581-019-03314-9,E
(Gd2O3)0.25(SrO)0.5(Fe2O3)0.4(CuO)0.2,35.54404145,448.3018868,2.00E+01,0.00E+00,,https://doi.org/10.1007/s11581-019-03314-9,E
(Gd2O3)0.25(SrO)0.5(Fe2O3)0.4(CuO)0.2,34.09326425,499.245283,2.00E+01,0.00E+00,,https://doi.org/10.1007/s11581-019-03314-9,E
(Gd2O3)0.25(SrO)0.5(Fe2O3)0.4(CuO)0.2,31.91709845,553.5849057,2.00E+01,0.00E+00,,https://doi.org/10.1007/s11581-019-03314-9,E
(Gd2O3)0.25(SrO)0.5(Fe2O3)0.4(CuO)0.2,29.74093264,601.1320755,2.00E+01,0.00E+00,,https://doi.org/10.1007/s11581-019-03314-9,E
(Gd2O3)0.25(SrO)0.5(Fe2O3)0.4(CuO)0.2,27.56476684,648.6792453,2.00E+01,0.00E+00,,https://doi.org/10.1007/s11581-019-03314-9,E
(Gd2O3)0.25(SrO)0.5(Fe2O3)0.4(CuO)0.2,25.38860104,699.6226415,2.00E+01,0.00E+00,,https://doi.org/10.1007/s11581-019-03314-9,E
(Gd2O3)0.25(SrO)0.5(Fe2O3)0.4(CuO)0.2,23.93782383,750.5660377,2.00E+01,0.00E+00,,https://doi.org/10.1007/s11581-019-03314-9,E
(Gd2O3)0.25(SrO)0.5(Fe2O3)0.4(CuO)0.2,22.48704663,798.1132075,2.00E+01,0.00E+00,,https://doi.org/10.1007/s11581-019-03314-9,E
(Gd2O3)0.25(SrO)0.5(Fe2O3)0.4(CuO)0.2,20.31088083,845.6603774,2.00E+01,0.00E+00,,https://doi.org/10.1007/s11581-019-03314-9,E
(Pr2O3)0.3(SrO)0.4(Fe2O3)0.4(NiO)0.2,286.5384615,345.6163045,20,0,,https://doi.org/10.1016/j.electacta.2017.09.157,O+E
(Pr2O3)0.3(SrO)0.4(Fe2O3)0.4(NiO)0.2,298.0769231,399.341727,20,0,,https://doi.org/10.1016/j.electacta.2017.09.157,O+E
(Pr2O3)0.3(SrO)0.4(Fe2O3)0.4(NiO)0.2,311.5384615,448.5684719,20,0,,https://doi.org/10.1016/j.electacta.2017.09.157,O+E
(Pr2O3)0.3(SrO)0.4(Fe2O3)0.4(NiO)0.2,317.3076923,497.8527078,20,0,,https://doi.org/10.1016/j.electacta.2017.09.157,O+E
(Pr2O3)0.3(SrO)0.4(Fe2O3)0.4(NiO)0.2,323.0769231,547.1369438,20,0,,https://doi.org/10.1016/j.electacta.2017.09.157,O+E
(Pr2O3)0.3(SrO)0.4(Fe2O3)0.4(NiO)0.2,321.1538462,600.9629757,20,0,,https://doi.org/10.1016/j.electacta.2017.09.157,O+E
(Pr2O3)0.3(SrO)0.4(Fe2O3)0.4(NiO)0.2,313.4615385,650.3478211,20,0,,https://doi.org/10.1016/j.electacta.2017.09.157,E
(Pr2O3)0.3(SrO)0.4(Fe2O3)0.4(NiO)0.2,305.7692308,699.7326664,20,0,,https://doi.org/10.1016/j.electacta.2017.09.157,E
(Pr2O3)0.3(SrO)0.4(Fe2O3)0.4(NiO)0.2,292.3076923,746.9184776,20,0,,https://doi.org/10.1016/j.electacta.2017.09.157,E
(Pr2O3)0.3(SrO)0.4(Fe2O3)0.4(NiO)0.2,278.8461538,800.8307462,20,0,,https://doi.org/10.1016/j.electacta.2017.09.157,E
(La2O3)0.35(SrO)0.3(Ga2O3)0.4(MgO)0.2,0.109,800,1.00E-03,0,,https://doi.org/10.1111/j.1151-2916.1998.tb02662.x,O
(La2O3)0.35(SrO)0.3(Ga2O3)0.4(MgO)0.2,0.049,702,1.00E-03,0,,https://doi.org/10.1111/j.1151-2916.1998.tb02662.x,O
(La2O3)0.35(SrO)0.3(Ga2O3)0.4(MgO)0.2,0.013,595,1.00E-03,0,,https://doi.org/10.1111/j.1151-2916.1998.tb02662.x,O
(La2O3)0.375(SrO)0.25(Ga2O3)0.4(MgO)0.2,0.142,800,1.00E-03,0,,https://doi.org/10.1111/j.1151-2916.1998.tb02662.x,O
(La2O3)0.375(SrO)0.25(Ga2O3)0.4(MgO)0.2,0.066,702,1.00E-03,0,,https://doi.org/10.1111/j.1151-2916.1998.tb02662.x,O
(La2O3)0.375(SrO)0.25(Ga2O3)0.4(MgO)0.2,0.02,595,1.00E-03,0,,https://doi.org/10.1111/j.1151-2916.1998.tb02662.x,O
(La2O3)0.4(SrO)0.2(Ga2O3)0.4(MgO)0.2,0.362442511,950,6.96E-20,0,,https://doi.org/10.1016/0167-2738(95)00054-A,O
(La2O3)0.4(SrO)0.2(Ga2O3)0.4(MgO)0.2,0.358383351,950,1.62E-15,0,,https://doi.org/10.1016/0167-2738(95)00054-A,O
(La2O3)0.4(SrO)0.2(Ga2O3)0.4(MgO)0.2,0.361084375,950,8.60E-09,0,,https://doi.org/10.1016/0167-2738(95)00054-A,O
(La2O3)0.4(SrO)0.2(Ga2O3)0.4(MgO)0.2,0.350400904,950,7.47E-03,0,,https://doi.org/10.1016/0167-2738(95)00054-A,O
(La2O3)0.4(SrO)0.2(Ga2O3)0.4(MgO)0.2,0.357487507,950,1.53E-01,0,,https://doi.org/10.1016/0167-2738(95)00054-A,O
(La2O3)0.4(SrO)0.2(Ga2O3)0.4(MgO)0.2,0.358383351,950,8.51E+00,0,,https://doi.org/10.1016/0167-2738(95)00054-A,O
(La2O3)0.4(SrO)0.2(Ga2O3)0.4(MgO)0.2,0.358832115,950,9.51E+01,0,,https://doi.org/10.1016/0167-2738(95)00054-A,O
(La2O3)0.4(SrO)0.2(Ga2O3)0.4(MgO)0.2,0.346526271,951.2647059,1.00E-03,0,,https://doi.org/10.1016/0167-2738(95)00054-A,O
(La2O3)0.4(SrO)0.2(Ga2O3)0.4(MgO)0.2,0.271367953,899.5352113,1.00E-03,0,,https://doi.org/10.1016/0167-2738(95)00054-A,O
(La2O3)0.4(SrO)0.2(Ga2O3)0.4(MgO)0.2,0.228869626,848.967655,1.00E-03,0,,https://doi.org/10.1016/0167-2738(95)00054-A,O
(La2O3)0.4(SrO)0.2(Ga2O3)0.4(MgO)0.2,0.174927119,798.4285714,1.00E-03,0,,https://doi.org/10.1016/0167-2738(95)00054-A,O
(La2O3)0.4(SrO)0.2(Ga2O3)0.4(MgO)0.2,0.121152766,749.7272727,1.00E-03,0,,https://doi.org/10.1016/0167-2738(95)00054-A,O
(La2O3)0.4(SrO)0.2(Ga2O3)0.4(MgO)0.2,0.088198931,697.2797203,1.00E-03,0,,https://doi.org/10.1016/0167-2738(95)00054-A,O
(La2O3)0.4(SrO)0.2(Ga2O3)0.4(MgO)0.2,0.14,800,1.00E-03,0,,https://doi.org/10.1111/j.1151-2916.1998.tb02662.x,O
(La2O3)0.4(SrO)0.2(Ga2O3)0.4(MgO)0.2,0.065,702,1.00E-03,0,,https://doi.org/10.1111/j.1151-2916.1998.tb02662.x,O
(La2O3)0.4(SrO)0.2(Ga2O3)0.4(MgO)0.2,0.021,595,1.00E-03,0,,https://doi.org/10.1111/j.1151-2916.1998.tb02662.x,O
(La2O3)0.4(SrO)0.2(Ga2O3)0.4(MgO)0.2,0.314507011,944.7777778,1.00E-03,0,,https://doi.org/10.1021/cm981145w,O
(La2O3)0.4(SrO)0.2(Ga2O3)0.4(MgO)0.2,0.264119793,894.945439,1.00E-03,0,,https://doi.org/10.1021/cm981145w,O
(La2O3)0.4(SrO)0.2(Ga2O3)0.4(MgO)0.2,0.194580595,849.031122,1.00E-03,0,,https://doi.org/10.1021/cm981145w,O
(La2O3)0.4(SrO)0.2(Ga2O3)0.4(MgO)0.2,0.163406806,806.5902285,1.00E-03,0,,https://doi.org/10.1021/cm981145w,O
(La2O3)0.4(SrO)0.2(Ga2O3)0.4(MgO)0.2,0.115242156,754.7569392,1.00E-03,0,,https://doi.org/10.1021/cm981145w,O
(La2O3)0.4(SrO)0.2(Ga2O3)0.4(MgO)0.2,0.074479699,699.3207949,1.00E-03,0,,https://doi.org/10.1021/cm981145w,O
(La2O3)0.4(SrO)0.2(Ga2O3)0.4(MgO)0.2,0.048135386,652.0506415,1.00E-03,0,,https://doi.org/10.1021/cm981145w,O
(La2O3)0.4(SrO)0.2(Ga2O3)0.4(MgO)0.2,0.027893154,604.6425368,1.00E-03,0,,https://doi.org/10.1021/cm981145w,O
(La2O3)0.4(SrO)0.2(Ga2O3)0.4(MgO)0.2,0.012439036,545.8882247,1.00E-03,0,,https://doi.org/10.1021/cm981145w,O
(La2O3)0.4(SrO)0.2(Ga2O3)0.4(MgO)0.2,0.005310293,501.4488412,1.00E-03,0,,https://doi.org/10.1021/cm981145w,O
(La2O3)0.4(SrO)0.2(Ga2O3)0.4(CoO)0.2,0.821659618,936.1791703,1.00E-03,0,,https://doi.org/10.1021/cm981145w,O+E
(La2O3)0.4(SrO)0.2(Ga2O3)0.4(CoO)0.2,0.752969268,887.0338696,1.00E-03,0,,https://doi.org/10.1021/cm981145w,O+E
(La2O3)0.4(SrO)0.2(Ga2O3)0.4(CoO)0.2,0.675124527,841.7274207,1.00E-03,0,,https://doi.org/10.1021/cm981145w,O+E
(La2O3)0.4(SrO)0.2(Ga2O3)0.4(CoO)0.2,0.705246975,789.8394104,1.00E-03,0,,https://doi.org/10.1021/cm981145w,O+E
(La2O3)0.4(SrO)0.2(Ga2O3)0.4(CoO)0.2,0.83978984,696.5682944,1.00E-03,0,,https://doi.org/10.1021/cm981145w,O+E
(La2O3)0.4(SrO)0.2(Ga2O3)0.4(CoO)0.2,0.83978984,639.7248501,1.00E-03,0,,https://doi.org/10.1021/cm981145w,O+E
(La2O3)0.4(SrO)0.2(Ga2O3)0.4(CoO)0.2,0.803920809,593.5401645,1.00E-03,0,,https://doi.org/10.1021/cm981145w,O+E
(La2O3)0.4(SrO)0.2(Ga2O3)0.4(CoO)0.2,0.736713415,538.1308467,1.00E-03,0,,https://doi.org/10.1021/cm981145w,O+E
(La2O3)0.4(SrO)0.2(Ga2O3)0.4(CoO)0.2,0.646288667,489.3817474,1.00E-03,0,,https://doi.org/10.1021/cm981145w,O+E
(La2O3)0.4(SrO)0.2(Ga2O3)0.4(MgO)0.2,0.36425568,950,9.88123E-20,0,,https://doi.org/10.1021/cm981145w,O+E
(La2O3)0.4(SrO)0.2(Ga2O3)0.4(MgO)0.2,0.363616735,950,2.0981E-15,0,,https://doi.org/10.1021/cm981145w,O+E
(La2O3)0.4(SrO)0.2(Ga2O3)0.4(MgO)0.2,0.359708284,950,9.05743E-09,0,,https://doi.org/10.1021/cm981145w,O+E
(La2O3)0.4(SrO)0.2(Ga2O3)0.4(MgO)0.2,0.347364768,950,0.010387719,0,,https://doi.org/10.1021/cm981145w,O+E
(La2O3)0.4(SrO)0.2(Ga2O3)0.4(MgO)0.2,0.35839152,950,9.900523512,0,,https://doi.org/10.1021/cm981145w,O+E
(La2O3)0.4(SrO)0.2(Ga2O3)0.4(MgO)0.2,0.358251723,950,90.61852443,0,,https://doi.org/10.1021/cm981145w,O+E
(La2O3)0.4(SrO)0.2(Ga2O3)0.4(CoO)0.2,0.254701781,950,5.54951E-18,0,,https://doi.org/10.1021/cm981145w,O+E
(La2O3)0.4(SrO)0.2(Ga2O3)0.4(CoO)0.2,0.304331141,950,9.65967E-17,0,,https://doi.org/10.1021/cm981145w,O+E
(La2O3)0.4(SrO)0.2(Ga2O3)0.4(CoO)0.2,0.409996205,950,2.81952E-11,0,,https://doi.org/10.1021/cm981145w,O+E
(La2O3)0.4(SrO)0.2(Ga2O3)0.4(CoO)0.2,0.848090566,950,0.011643424,0,,https://doi.org/10.1021/cm981145w,O+E
(La2O3)0.4(SrO)0.2(Ga2O3)0.4(CoO)0.2,1.107311549,950,5.552221721,0,,https://doi.org/10.1021/cm981145w,O+E
(La2O3)0.4(SrO)0.2(Ga2O3)0.4(CoO)0.2,1.355679889,950,96.36147088,0,,https://doi.org/10.1021/cm981145w,O+E
(La2O3)0.4(SrO)0.2(Ga2O3)0.4(MgO)0.2,0.065737588,677.166113,20,0,,10.1149/1.2167929,O
(La2O3)0.4(SrO)0.2(Ga2O3)0.4(MgO)0.2,0.04202249,637.2482495,20,0,,10.1149/1.2167929,O
(La2O3)0.4(SrO)0.2(Ga2O3)0.4(MgO)0.2,0.024932231,587.9271523,20,0,,10.1149/1.2167929,O
(La2O3)0.4(SrO)0.2(Ga2O3)0.4(MgO)0.2,0.011826997,531.2744657,20,0,,10.1149/1.2167929,O
(La2O3)0.4(SrO)0.2(Ga2O3)0.4(MgO)0.2,0.004485614,474.516989,20,0,,10.1149/1.2167929,O
(La2O3)0.4(SrO)0.2(Ga2O3)0.4(MgO)0.2,0.001360201,416.1566265,20,0,,10.1149/1.2167929,O
(La2O3)0.4(SrO)0.2(Ga2O3)0.4(MgO)0.2,0.000695193,379.3722628,20,0,,10.1149/1.2167929,O
(La2O3)0.4(SrO)0.2(Ga2O3)0.4(MgO)0.2,0.000306076,352.8205689,20,0,,10.1149/1.2167929,O
(La2O3)0.4(SrO2)0.2(Ga2O3)0.4(MgO)0.2,0.069570359,697.924819,0,4,,https://doi.org/10.1002/adma.200601366,O
(La2O3)0.4(SrO2)0.2(Ga2O3)0.4(MgO)0.2,0.047068166,648.190689,0,4,,https://doi.org/10.1002/adma.200601366,O