Composition,Conductivity (S/cm),Temperature (degC),PO2 (%),PH2O (%),Grainsize,Ref,Carrier Type
(BaO)1(Y2O3)0.15(CeO2)0.7,0.027295448,799.555205,0,1.9,15.2,https://doi.org/10.1016/j.ijhydene.2010.02.080,H
(BaO)1(Y2O3)0.15(CeO2)0.7,0.024602398,751.0963855,0,1.9,15.2,https://doi.org/10.1016/j.ijhydene.2010.02.080,H
(BaO)1(Y2O3)0.15(CeO2)0.7,0.022175053,699.8183119,0,1.9,15.2,https://doi.org/10.1016/j.ijhydene.2010.02.080,H
(BaO)1(Y2O3)0.15(CeO2)0.7,0.019987196,649.6594301,0,1.9,15.2,https://doi.org/10.1016/j.ijhydene.2010.02.080,H
(BaO)1(Y2O3)0.15(CeO2)0.7,0.016237767,599.9139923,0,1.9,15.2,https://doi.org/10.1016/j.ijhydene.2010.02.080,H
(BaO)1(Y2O3)0.15(CeO2)0.7,0.0131917,549.2490931,0,1.9,15.2,https://doi.org/10.1016/j.ijhydene.2010.02.080,H
(La2O3)0.15(SrO)0.7(Mn2O3)0.5,129.9803113,1173.313668,100,0,,https://doi.org/10.1016/S0167-2738(00)00662-7,O+E
(La2O3)0.15(SrO)0.7(Mn2O3)0.5,99.80271758,962.1694915,100,0,,https://doi.org/10.1016/S0167-2738(00)00662-7,O+E
(La2O3)0.15(SrO)0.7(Mn2O3)0.5,79.62521176,772.0369706,100,0,,https://doi.org/10.1016/S0167-2738(00)00662-7,O+E
(La2O3)0.15(SrO)0.7(Mn2O3)0.5,63.48004432,683.32561,100,0,,https://doi.org/10.1016/S0167-2738(00)00662-7,O+E
(La2O3)0.15(SrO)0.7(Mn2O3)0.5,54.61977594,586.5650571,100,0,,https://doi.org/10.1016/S0167-2738(00)00662-7,O+E
(La2O3)0.15(SrO)0.7(Mn2O3)0.5,33.41643533,480.8996201,100,0,,https://doi.org/10.1016/S0167-2738(00)00662-7,O+E
(La2O3)0.15(SrO)0.7(Mn2O3)0.5,16.29583219,366.5392685,100,0,,https://doi.org/10.1016/S0167-2738(00)00662-7,O+E
(La2O3)0.15(SrO)0.7(Mn2O3)0.5,3.868168288,255.6333626,100,0,,https://doi.org/10.1016/S0167-2738(00)00662-7,O+E
(La2O3)0.15(SrO)0.7(Mn2O3)0.5,1.563482603,163.5610521,100,0,,https://doi.org/10.1016/S0167-2738(00)00662-7,O+E
(La2O3)0.15(SrO)0.7(Mn2O3)0.5,0.307035865,106.6345285,100,0,,https://doi.org/10.1016/S0167-2738(00)00662-7,O+E
(La2O3)0.25(SrO)0.5(Mn2O3)0.5,405.7664709,1215.194001,100,0,,https://doi.org/10.1016/S0167-2738(00)00662-7,O+E
(La2O3)0.25(SrO)0.5(Mn2O3)0.5,422.243353,949.3022997,100,0,,https://doi.org/10.1016/S0167-2738(00)00662-7,O+E
(La2O3)0.25(SrO)0.5(Mn2O3)0.5,492.3765764,764.5396252,100,0,,https://doi.org/10.1016/S0167-2738(00)00662-7,O+E
(La2O3)0.25(SrO)0.5(Mn2O3)0.5,493.2889818,627.7773647,100,0,,https://doi.org/10.1016/S0167-2738(00)00662-7,O+E
(La2O3)0.25(SrO)0.5(Mn2O3)0.5,533.2748656,513.907373,100,0,,https://doi.org/10.1016/S0167-2738(00)00662-7,O+E
(La2O3)0.25(SrO)0.5(Mn2O3)0.5,576.6087359,418.5264289,100,0,,https://doi.org/10.1016/S0167-2738(00)00662-7,O+E
(La2O3)0.25(SrO)0.5(Mn2O3)0.5,577.1427351,385.2224888,100,0,,https://doi.org/10.1016/S0167-2738(00)00662-7,O+E
(La2O3)0.25(SrO)0.5(Mn2O3)0.5,623.8102838,327.5085782,100,0,,https://doi.org/10.1016/S0167-2738(00)00662-7,O+E
(La2O3)0.25(SrO)0.5(Mn2O3)0.5,624.5036033,297.4326556,100,0,,https://doi.org/10.1016/S0167-2738(00)00662-7,O+E
(La2O3)0.25(SrO)0.5(Mn2O3)0.5,625.7766911,249.459953,100,0,,https://doi.org/10.1016/S0167-2738(00)00662-7,O+E
(La2O3)0.25(SrO)0.5(Mn2O3)0.5,626.9362955,212.3530361,100,0,,https://doi.org/10.1016/S0167-2738(00)00662-7,O+E
(La2O3)0.25(SrO)0.5(Mn2O3)0.5,581.647898,195.6377452,100,0,,https://doi.org/10.1016/S0167-2738(00)00662-7,O+E
(La2O3)0.25(SrO)0.5(Mn2O3)0.5,582.5100031,171.2645203,100,0,,https://doi.org/10.1016/S0167-2738(00)00662-7,O+E
(La2O3)0.25(SrO)0.5(Mn2O3)0.5,584.6708604,120.1469033,100,0,,https://doi.org/10.1016/S0167-2738(00)00662-7,O+E
(La2O3)0.25(SrO)0.5(Mn2O3)0.5,658.9490617,60.69703257,100,0,,https://doi.org/10.1016/S0167-2738(00)00662-7,O+E
(La2O3)0.25(SrO)0.5(Mn2O3)0.5,109.2580707,800,8.55257E-16,0,,https://doi.org/10.1016/S0167-2738(00)00662-7,O+E
(La2O3)0.25(SrO)0.5(Mn2O3)0.5,116.7030357,800,2.86058E-15,0,,https://doi.org/10.1016/S0167-2738(00)00662-7,O+E
(La2O3)0.25(SrO)0.5(Mn2O3)0.5,307.3037674,800,8.30717E-14,0,,https://doi.org/10.1016/S0167-2738(00)00662-7,O+E
(La2O3)0.25(SrO)0.5(Mn2O3)0.5,437.4622938,800,3.71032E-10,0,,https://doi.org/10.1016/S0167-2738(00)00662-7,O+E
(La2O3)0.25(SrO)0.5(Mn2O3)0.5,453.7481548,800,0.002195035,0,,https://doi.org/10.1016/S0167-2738(00)00662-7,O+E
(La2O3)0.25(SrO)0.5(Mn2O3)0.5,500.4877736,800,0.0941626,0,,https://doi.org/10.1016/S0167-2738(00)00662-7,O+E
(La2O3)0.25(SrO)0.5(Mn2O3)0.5,464.1293884,800,0.802599841,0,,https://doi.org/10.1016/S0167-2738(00)00662-7,O+E
(La2O3)0.25(SrO)0.5(Mn2O3)0.5,500.9691291,800,8.860046062,0,,https://doi.org/10.1016/S0167-2738(00)00662-7,O+E
(La2O3)0.25(SrO)0.5(Mn2O3)0.5,476.8050831,800,74.96310567,0,,https://doi.org/10.1016/S0167-2738(00)00662-7,O+E
(Bi2O3)0.25(SrO)0.5(Fe2O3)0.5,6.679867315,593.6356877,20,0,,https://doi.org/10.1016/j.jallcom.2017.01.026,O+E
(Bi2O3)0.25(SrO)0.5(Fe2O3)0.5,5.277057692,568.2268832,20,0,,https://doi.org/10.1016/j.jallcom.2017.01.026,O+E
(Bi2O3)0.25(SrO)0.5(Fe2O3)0.5,2.988804879,498.6177079,20,0,,https://doi.org/10.1016/j.jallcom.2017.01.026,O+E
(Bi2O3)0.25(SrO)0.5(Fe2O3)0.5,1.745781873,450.70974,20,0,,https://doi.org/10.1016/j.jallcom.2017.01.026,O+E
(Bi2O3)0.25(SrO)0.5(Fe2O3)0.5,1.250560608,423.6753829,20,0,,https://doi.org/10.1016/j.jallcom.2017.01.026,O+E
(Bi2O3)0.25(SrO)0.5(Fe2O3)0.5,0.772454397,390.2290185,20,0,,https://doi.org/10.1016/j.jallcom.2017.01.026,O+E
(Bi2O3)0.25(SrO)0.5(Fe2O3)0.5,0.694577589,378.6422082,20,0,,https://doi.org/10.1016/j.jallcom.2017.01.026,O+E
(Bi2O3)0.25(SrO)0.5(Fe2O3)0.5,0.494861052,357.7067974,20,0,,https://doi.org/10.1016/j.jallcom.2017.01.026,O+E
(Bi2O3)0.25(SrO)0.5(Fe2O3)0.5,0.403120591,342.1055409,20,0,,https://doi.org/10.1016/j.jallcom.2017.01.026,O+E
(Bi2O3)0.25(SrO)0.5(Fe2O3)0.5,0.280760994,325.3317292,20,0,,https://doi.org/10.1016/j.jallcom.2017.01.026,O+E
(Bi2O3)0.25(SrO)0.5(Fe2O3)0.5,0.191839775,299.6128339,20,0,,https://doi.org/10.1016/j.jallcom.2017.01.026,O+E
(Nd2O3)0.3(CaO)0.4(Al2O3)0.5,0.002825212,950,1.00E-03,0,,10.1149/1.2059351,O
(La2O3)0.3(SrO)0.4(Mn2O3)0.5,277.619411,1211.641095,100,0,,https://doi.org/10.1016/S0167-2738(00)00662-7,O+E
(La2O3)0.3(SrO)0.4(Mn2O3)0.5,299.7899777,1066.748654,100,0,,https://doi.org/10.1016/S0167-2738(00)00662-7,O+E
(La2O3)0.3(SrO)0.4(Mn2O3)0.5,323.8509663,905.5217941,100,0,,https://doi.org/10.1016/S0167-2738(00)00662-7,O+E
(La2O3)0.3(SrO)0.4(Mn2O3)0.5,336.9391361,747.3456574,100,0,,https://doi.org/10.1016/S0167-2738(00)00662-7,O+E
(La2O3)0.3(SrO)0.4(Mn2O3)0.5,337.6885187,592.3061224,100,0,,https://doi.org/10.1016/S0167-2738(00)00662-7,O+E
(La2O3)0.3(SrO)0.4(Mn2O3)0.5,364.8587665,512.9128823,100,0,,https://doi.org/10.1016/S0167-2738(00)00662-7,O+E
(La2O3)0.3(SrO)0.4(Mn2O3)0.5,379.6042327,439.2785583,100,0,,https://doi.org/10.1016/S0167-2738(00)00662-7,O+E
(La2O3)0.3(SrO)0.4(Mn2O3)0.5,380.3076638,372.0452942,100,0,,https://doi.org/10.1016/S0167-2738(00)00662-7,O+E
(La2O3)0.3(SrO)0.4(Mn2O3)0.5,443.8040408,296.9621166,100,0,,https://doi.org/10.1016/S0167-2738(00)00662-7,O+E
(La2O3)0.3(SrO)0.4(Mn2O3)0.5,412.8132658,218.9182597,100,0,,https://doi.org/10.1016/S0167-2738(00)00662-7,O+E
(La2O3)0.3(SrO)0.4(Mn2O3)0.5,430.7708975,143.9218048,100,0,,https://doi.org/10.1016/S0167-2738(00)00662-7,O+E
(La2O3)0.3(SrO)0.4(Mn2O3)0.5,586.4053161,87.00849077,100,0,,https://doi.org/10.1016/S0167-2738(00)00662-7,O+E
(La2O3)0.3(SrO)0.4(Mn2O3)0.5,1043.114311,29.83747809,100,0,,https://doi.org/10.1016/S0167-2738(00)00662-7,O+E
(La2O3)0.3(SrO)0.4(Mn2O3)0.5,114.1197612,800,7.32872E-16,0,,https://doi.org/10.1016/S0167-2738(00)00662-7,O+E
(La2O3)0.3(SrO)0.4(Mn2O3)0.5,133.9034722,800,9.51136E-15,0,,https://doi.org/10.1016/S0167-2738(00)00662-7,O+E
(La2O3)0.3(SrO)0.4(Mn2O3)0.5,173.0216289,800,2.30508E-14,0,,https://doi.org/10.1016/S0167-2738(00)00662-7,O+E
(La2O3)0.3(SrO)0.4(Mn2O3)0.5,95.10621911,800,8.11905E-14,0,,https://doi.org/10.1016/S0167-2738(00)00662-7,O+E
(La2O3)0.3(SrO)0.4(Mn2O3)0.5,197.5065785,800,5.6361E-14,0,,https://doi.org/10.1016/S0167-2738(00)00662-7,O+E
(La2O3)0.3(SrO)0.4(Mn2O3)0.5,97.84994545,800,1.4414E-12,0,,https://doi.org/10.1016/S0167-2738(00)00662-7,O+E
(La2O3)0.3(SrO)0.4(Mn2O3)0.5,231.8111803,800,2.511E-13,0,,https://doi.org/10.1016/S0167-2738(00)00662-7,O+E
(La2O3)0.3(SrO)0.4(Mn2O3)0.5,258.7831333,800,9.65725E-13,0,,https://doi.org/10.1016/S0167-2738(00)00662-7,O+E
(La2O3)0.3(SrO)0.4(Mn2O3)0.5,295.5907836,800,7.87444E-12,0,,https://doi.org/10.1016/S0167-2738(00)00662-7,O+E
(La2O3)0.3(SrO)0.4(Mn2O3)0.5,324.3918876,800,0.000956634,0,,https://doi.org/10.1016/S0167-2738(00)00662-7,O+E
(La2O3)0.3(SrO)0.4(Mn2O3)0.5,322.41833,800,0.077474695,0,,https://doi.org/10.1016/S0167-2738(00)00662-7,O+E
(La2O3)0.3(SrO)0.4(Mn2O3)0.5,325.0978756,800,0.75040693,0,,https://doi.org/10.1016/S0167-2738(00)00662-7,O+E
(La2O3)0.3(SrO)0.4(Mn2O3)0.5,325.3385534,800,7.279065124,0,,https://doi.org/10.1016/S0167-2738(00)00662-7,O+E
(La2O3)0.3(SrO)0.4(Mn2O3)0.5,323.1564084,800,82.27756542,0,,https://doi.org/10.1016/S0167-2738(00)00662-7,O+E
(La2O3)0.35(CaO)0.3(Al2O3)0.5,0.017447208,1196.843345,2.00E+01,0,,https://doi.org/10.1016/0167-2738(92)90095-7,O
(La2O3)0.35(CaO)0.3(Al2O3)0.5,0.015162421,1165.25856,2.00E+01,0,,https://doi.org/10.1016/0167-2738(92)90095-7,O
(La2O3)0.35(CaO)0.3(Al2O3)0.5,0.013930377,1139.230273,2.00E+01,0,,https://doi.org/10.1016/0167-2738(92)90095-7,O
(La2O3)0.35(CaO)0.3(Al2O3)0.5,0.011458049,1114.176751,2.00E+01,0,,https://doi.org/10.1016/0167-2738(92)90095-7,O
(La2O3)0.35(CaO)0.3(Al2O3)0.5,0.009960514,1089.972788,2.00E+01,0,,https://doi.org/10.1016/0167-2738(92)90095-7,O
(La2O3)0.35(CaO)0.3(Al2O3)0.5,0.008415033,1055.193151,2.00E+01,0,,https://doi.org/10.1016/0167-2738(92)90095-7,O
(La2O3)0.35(CaO)0.3(Al2O3)0.5,0.007119872,1040.335822,2.00E+01,0,,https://doi.org/10.1016/0167-2738(92)90095-7,O
(La2O3)0.35(CaO)0.3(Al2O3)0.5,0.006361015,1015.050684,2.00E+01,0,,https://doi.org/10.1016/0167-2738(92)90095-7,O
(La2O3)0.35(CaO)0.3(Al2O3)0.5,0.005529648,994.1562493,2.00E+01,0,,https://doi.org/10.1016/0167-2738(92)90095-7,O
(La2O3)0.35(CaO)0.3(Al2O3)0.5,0.004804095,967.3127023,2.00E+01,0,,https://doi.org/10.1016/0167-2738(92)90095-7,O
(La2O3)0.35(CaO)0.3(Al2O3)0.5,0.003951477,947.9458492,2.00E+01,0,,https://doi.org/10.1016/0167-2738(92)90095-7,O
(La2O3)0.35(CaO)0.3(Al2O3)0.5,0.00333935,923.0143738,2.00E+01,0,,https://doi.org/10.1016/0167-2738(92)90095-7,O
(La2O3)0.35(CaO)0.3(Al2O3)0.5,0.002821214,896.1496053,2.00E+01,0,,https://doi.org/10.1016/0167-2738(92)90095-7,O
(La2O3)0.35(CaO)0.3(Al2O3)0.5,0.002256543,876.103108,2.00E+01,0,,https://doi.org/10.1016/0167-2738(92)90095-7,O
(La2O3)0.35(CaO)0.3(Al2O3)0.5,0.001803292,848.6015417,2.00E+01,0,,https://doi.org/10.1016/0167-2738(92)90095-7,O
(La2O3)0.35(CaO)0.3(Al2O3)0.5,0.001481933,824.9503681,2.00E+01,0,,https://doi.org/10.1016/0167-2738(92)90095-7,O
(La2O3)0.35(CaO)0.3(Al2O3)0.5,0.001151965,799.8234035,2.00E+01,0,,https://doi.org/10.1016/0167-2738(92)90095-7,O
(La2O3)0.35(CaO)0.3(Al2O3)0.5,0.000920852,778.1718981,2.00E+01,0,,https://doi.org/10.1016/0167-2738(92)90095-7,O
(La2O3)0.35(CaO)0.3(Al2O3)0.5,0.000695465,746.1596716,2.00E+01,0,,https://doi.org/10.1016/0167-2738(92)90095-7,O
(La2O3)0.35(CaO)0.3(Al2O3)0.5,0.000511217,720.2484054,2.00E+01,0,,https://doi.org/10.1016/0167-2738(92)90095-7,O
(La2O3)0.35(CaO)0.3(Al2O3)0.5,0.000376005,699.6524001,2.00E+01,0,,https://doi.org/10.1016/0167-2738(92)90095-7,O
(La2O3)0.35(CaO)0.3(Al2O3)0.5,0.000254233,672.2044606,2.00E+01,0,,https://doi.org/10.1016/0167-2738(92)90095-7,O
(La2O3)0.35(CaO)0.3(Al2O3)0.5,0.000197508,649.8651158,2.00E+01,0,,https://doi.org/10.1016/0167-2738(92)90095-7,O
(La2O3)0.35(CaO)0.3(Al2O3)0.5,0.00012632,623.4077761,2.00E+01,0,,https://doi.org/10.1016/0167-2738(92)90095-7,O
(La2O3)0.35(CaO)0.3(Al2O3)0.5,8.53852E-05,598.4153976,2.00E+01,0,,https://doi.org/10.1016/0167-2738(92)90095-7,O
(La2O3)0.35(CaO)0.3(Al2O3)0.5,5.76985E-05,573.244267,2.00E+01,0,,https://doi.org/10.1016/0167-2738(92)90095-7,O
(Nd2O3)0.35(CaO)0.3(Al2O3)0.5,0.008091897,950,1.00E-03,0,,10.1149/1.2059351,O
(La2O3)0.35(SrO)0.3(Mn2O3)0.5,212.2868422,918.2350598,20,0,,https://doi.org/10.1016/0167-2738(87)90039-7,O+E
(La2O3)0.35(SrO)0.3(Mn2O3)0.5,177.827941,727.8368201,20,0,,https://doi.org/10.1016/0167-2738(87)90039-7,O+E
(La2O3)0.35(SrO)0.3(Mn2O3)0.5,155.7068405,520.4980926,20,0,,https://doi.org/10.1016/0167-2738(87)90039-7,O+E
(La2O3)0.35(SrO)0.3(Mn2O3)0.5,142.510267,417.2322897,20,0,,https://doi.org/10.1016/0167-2738(87)90039-7,O+E
(La2O3)0.35(SrO)0.3(Mn2O3)0.5,119.3776642,302.0691189,20,0,,https://doi.org/10.1016/0167-2738(87)90039-7,O+E
(La2O3)0.35(SrO)0.3(Mn2O3)0.5,87.56039101,209.4526019,20,0,,https://doi.org/10.1016/0167-2738(87)90039-7,O+E
(La2O3)0.35(SrO)0.3(Mn2O3)0.5,70.17038287,137.6085315,20,0,,https://doi.org/10.1016/0167-2738(87)90039-7,O+E
(La2O3)0.35(SrO)0.3(Mn2O3)0.5,34.55107295,26.84330931,20,0,,https://doi.org/10.1016/0167-2738(87)90039-7,O+E
(La2O3)0.35(SrO)0.3(Cr2O3)0.5,14.896249,912.3320119,20,0,,https://doi.org/10.1016/0167-2738(87)90039-7,O+E
(La2O3)0.35(SrO)0.3(Cr2O3)0.5,13.04321387,835.8619331,20,0,,https://doi.org/10.1016/0167-2738(87)90039-7,O+E
(La2O3)0.35(SrO)0.3(Cr2O3)0.5,11.93776642,738.2027056,20,0,,https://doi.org/10.1016/0167-2738(87)90039-7,O+E
(La2O3)0.35(SrO)0.3(Cr2O3)0.5,10.45275495,597.6624606,20,0,,https://doi.org/10.1016/0167-2738(87)90039-7,O+E
(La2O3)0.35(SrO)0.3(Cr2O3)0.5,9.152473109,483.0448823,20,0,,https://doi.org/10.1016/0167-2738(87)90039-7,O+E
(La2O3)0.35(SrO)0.3(Cr2O3)0.5,8.013941242,401.6263044,20,0,,https://doi.org/10.1016/0167-2738(87)90039-7,O+E
(La2O3)0.35(SrO)0.3(Cr2O3)0.5,5.623413252,286.5321637,20,0,,https://doi.org/10.1016/0167-2738(87)90039-7,O+E
(La2O3)0.35(SrO)0.3(Cr2O3)0.5,3.611538989,182.8505908,20,0,,https://doi.org/10.1016/0167-2738(87)90039-7,O+E
(La2O3)0.35(SrO)0.3(Cr2O3)0.5,2.424462017,113.7525398,20,0,,https://doi.org/10.1016/0167-2738(87)90039-7,O+E
(La2O3)0.35(SrO)0.3(Cr2O3)0.5,2.122868422,97.12585104,20,0,,https://doi.org/10.1016/0167-2738(87)90039-7,O+E
(La2O3)0.35(SrO)0.3(Cr2O3)0.5,1,22.4971278,20,0,,https://doi.org/10.1016/0167-2738(87)90039-7,O+E
(La2O3)0.35(SrO)0.3(Fe2O3)0.5,25.34230736,855.3018868,20,0,,https://doi.org/10.1016/0167-2738(87)90039-7,O+E
(La2O3)0.35(SrO)0.3(Fe2O3)0.5,17.7827941,738.8443316,20,0,,https://doi.org/10.1016/0167-2738(87)90039-7,O+E
(La2O3)0.35(SrO)0.3(Fe2O3)0.5,14.2510267,656.7143227,20,0,,https://doi.org/10.1016/0167-2738(87)90039-7,O+E
(La2O3)0.35(SrO)0.3(Fe2O3)0.5,10.45275495,527,20,0,,https://doi.org/10.1016/0167-2738(87)90039-7,O+E
(La2O3)0.35(SrO)0.3(Fe2O3)0.5,4.923882632,435.9157817,20,0,,https://doi.org/10.1016/0167-2738(87)90039-7,O+E
(La2O3)0.35(SrO)0.3(Fe2O3)0.5,0.330545135,197.5882353,20,0,,https://doi.org/10.1016/0167-2738(87)90039-7,O+E
(La2O3)0.35(SrO)0.3(Fe2O3)0.5,0.1,106.6323238,20,0,,https://doi.org/10.1016/0167-2738(87)90039-7,O+E
(La2O3)0.35(SrO)0.3(Mn2O3)0.5,257.4218273,1149.168013,100,0,,https://doi.org/10.1016/S0167-2738(00)00662-7,O+E
(La2O3)0.35(SrO)0.3(Mn2O3)0.5,278.0823701,968.8291952,100,0,,https://doi.org/10.1016/S0167-2738(00)00662-7,O+E
(La2O3)0.35(SrO)0.3(Mn2O3)0.5,268.17263,794.0937482,100,0,,https://doi.org/10.1016/S0167-2738(00)00662-7,O+E
(La2O3)0.35(SrO)0.3(Mn2O3)0.5,268.6695711,649.9703656,100,0,,https://doi.org/10.1016/S0167-2738(00)00662-7,O+E
(La2O3)0.35(SrO)0.3(Mn2O3)0.5,279.6829244,521.3455676,100,0,,https://doi.org/10.1016/S0167-2738(00)00662-7,O+E
(La2O3)0.35(SrO)0.3(Mn2O3)0.5,269.8659902,424.029703,100,0,,https://doi.org/10.1016/S0167-2738(00)00662-7,O+E
(La2O3)0.35(SrO)0.3(Mn2O3)0.5,270.5663602,336.9323242,100,0,,https://doi.org/10.1016/S0167-2738(00)00662-7,O+E
(La2O3)0.35(SrO)0.3(Mn2O3)0.5,261.0210909,282.3537939,100,0,,https://doi.org/10.1016/S0167-2738(00)00662-7,O+E
(La2O3)0.35(SrO)0.3(Mn2O3)0.5,271.6706158,236.8242833,100,0,,https://doi.org/10.1016/S0167-2738(00)00662-7,O+E
(La2O3)0.35(SrO)0.3(Mn2O3)0.5,282.4930182,215.0192529,100,0,,https://doi.org/10.1016/S0167-2738(00)00662-7,O+E
(La2O3)0.35(SrO)0.3(Mn2O3)0.5,282.9641045,185.5473762,100,0,,https://doi.org/10.1016/S0167-2738(00)00662-7,O+E
(La2O3)0.35(SrO)0.3(Mn2O3)0.5,294.7270694,143.6424727,100,0,,https://doi.org/10.1016/S0167-2738(00)00662-7,O+E
(La2O3)0.35(SrO)0.3(Mn2O3)0.5,306.524703,126.6144372,100,0,,https://doi.org/10.1016/S0167-2738(00)00662-7,O+E
(La2O3)0.35(SrO)0.3(Mn2O3)0.5,503.9039586,85.03938126,100,0,,https://doi.org/10.1016/S0167-2738(00)00662-7,O+E
(La2O3)0.35(SrO)0.3(Mn2O3)0.5,657.6084877,79.63874187,100,0,,https://doi.org/10.1016/S0167-2738(00)00662-7,O+E
(La2O3)0.35(SrO)0.3(Mn2O3)0.5,927.7623614,56.03578546,100,0,,https://doi.org/10.1016/S0167-2738(00)00662-7,O+E
(La2O3)0.35(SrO)0.3(Mn2O3)0.5,929.3095012,42.36953141,100,0,,https://doi.org/10.1016/S0167-2738(00)00662-7,O+E
(La2O3)0.35(SrO)0.3(Mn2O3)0.5,1125.374758,29.8669762,100,0,,https://doi.org/10.1016/S0167-2738(00)00662-7,O+E
(La2O3)0.35(SrO)0.3(Mn2O3)0.5,82.59097619,800,3.95375E-15,0,,https://doi.org/10.1016/S0167-2738(00)00662-7,O+E
(La2O3)0.35(SrO)0.3(Mn2O3)0.5,94.89763173,800,1.13317E-14,0,,https://doi.org/10.1016/S0167-2738(00)00662-7,O+E
(La2O3)0.35(SrO)0.3(Mn2O3)0.5,231.875361,800,4.60243E-13,0,,https://doi.org/10.1016/S0167-2738(00)00662-7,O+E
(La2O3)0.35(SrO)0.3(Mn2O3)0.5,258.9917207,800,6.91929E-12,0,,https://doi.org/10.1016/S0167-2738(00)00662-7,O+E
(La2O3)0.35(SrO)0.3(Mn2O3)0.5,270.7207496,800,0.000849337,0,,https://doi.org/10.1016/S0167-2738(00)00662-7,O+E
(La2O3)0.35(SrO)0.3(Mn2O3)0.5,273.8656055,800,0.665257131,0,,https://doi.org/10.1016/S0167-2738(00)00662-7,O+E
(La2O3)0.35(SrO)0.3(Mn2O3)0.5,276.8018741,800,72.72613713,0,,https://doi.org/10.1016/S0167-2738(00)00662-7,O+E
(La2O3)0.35(SrO)0.3(V2O3)0.5,41.79468599,800,1.56675E-12,0,,10.1149/199919.0632PV,E
(La2O3)0.35(SrO)0.3(V2O3)0.5,42.30676329,800,5.95662E-13,0,,10.1149/199919.0632PV,E
(La2O3)0.35(SrO)0.3(V2O3)0.5,41.87801932,800,9.71628E-14,0,,10.1149/199919.0632PV,E
(La2O3)0.35(SrO)0.3(V2O3)0.5,43.43357488,800,2.80221E-15,0,,10.1149/199919.0632PV,E
(La2O3)0.35(SrO)0.3(V2O3)0.5,44.58091787,800,6.64508E-18,0,,10.1149/199919.0632PV,E
(La2O3)0.35(SrO)0.3(V2O3)0.5,274.3358378,197.0090233,0,0,,10.1149/199919.0632PV,E
(La2O3)0.35(SrO)0.3(V2O3)0.5,250.9975914,302.1821188,0,0,,10.1149/199919.0632PV,E
(La2O3)0.35(SrO)0.3(V2O3)0.5,227.6305856,398.6123593,0,0,,10.1149/199919.0632PV,E
(La2O3)0.35(SrO)0.3(V2O3)0.5,201.6464752,499.4427868,0,0,,10.1149/199919.0632PV,E
(La2O3)0.35(SrO)0.3(V2O3)0.5,165.1364274,600.3882518,0,0,,10.1149/199919.0632PV,E
(La2O3)0.35(SrO)0.3(V2O3)0.5,152.3097386,701.0748823,0,0,,10.1149/199919.0632PV,E
(La2O3)0.35(SrO)0.3(V2O3)0.5,118.4167955,797.6201603,0,0,,10.1149/199919.0632PV,E
(La2O3)0.35(SrO)0.3(V2O3)0.5,108.2215911,898.2780314,0,0,,10.1149/199919.0632PV,E
(La2O3)0.35(SrO)0.3(V2O3)0.5,3.00E+02,25,21,0,,https://doi.org/10.1016/S0167-2738(01)00870-0,E
(La2O3)0.35(SrO)0.3(V2O3)0.5,1.20E+02,800,0,0,,https://doi.org/10.1016/S0167-2738(01)00870-0,E
(La2O3)0.35(SrO)0.3(V2O3)0.5,104.9663269,800,1.50584E-12,0,,https://doi.org/10.1016/S0167-2738(01)00870-0,E
(La2O3)0.35(SrO)0.3(V2O3)0.5,108.0338865,800,6.11322E-13,0,,https://doi.org/10.1016/S0167-2738(01)00870-0,E
(La2O3)0.35(SrO)0.3(V2O3)0.5,108.0338865,800,9.66451E-14,0,,https://doi.org/10.1016/S0167-2738(01)00870-0,E
(La2O3)0.35(SrO)0.3(V2O3)0.5,111.37815,800,2.98298E-15,0,,https://doi.org/10.1016/S0167-2738(01)00870-0,E
(La2O3)0.35(SrO)0.3(V2O3)0.5,113.665849,800,6.46219E-18,0,,https://doi.org/10.1016/S0167-2738(01)00870-0,E
(La2O3)0.35(SrO)0.3(V2O3)0.5,275.13096,196.1057,0,0,,https://doi.org/10.1016/S0167-2738(01)00870-0,E
(La2O3)0.35(SrO)0.3(V2O3)0.5,249.98978,297.86148,0,0,,https://doi.org/10.1016/S0167-2738(01)00870-0,E
(La2O3)0.35(SrO)0.3(V2O3)0.5,225.28584,398.56097,0,0,,https://doi.org/10.1016/S0167-2738(01)00870-0,E
(La2O3)0.35(SrO)0.3(V2O3)0.5,198.10422,499.26046,0,0,,https://doi.org/10.1016/S0167-2738(01)00870-0,E
(La2O3)0.35(SrO)0.3(V2O3)0.5,162.32358,599.7839,0,0,,https://doi.org/10.1016/S0167-2738(01)00870-0,E
(La2O3)0.35(SrO)0.3(V2O3)0.5,150.44528,699.60315,0,0,,https://doi.org/10.1016/S0167-2738(01)00870-0,E
(La2O3)0.35(SrO)0.3(V2O3)0.5,118.52692,798.19007,0,0,,https://doi.org/10.1016/S0167-2738(01)00870-0,E
(La2O3)0.35(SrO)0.3(V2O3)0.5,105.33691,898.88956,0,0,,https://doi.org/10.1016/S0167-2738(01)00870-0,E