Composition,Conductivity (S/cm),Temperature (degC),PO2 (%),PH2O (%),Grainsize,Ref,Carrier Type
(Sm2O3)0.2(SrO)0.6(CoO2)0.8(Fe2O3)0.1,122.5821861,805.9497267,20,0,,https://doi.org/10.1016/S0167-2738(98)00428-7,O+E
(Sm2O3)0.2(SrO)0.6(CoO2)0.8(Fe2O3)0.1,159.0838756,644.6129868,20,0,,https://doi.org/10.1016/S0167-2738(98)00428-7,O+E
(Sm2O3)0.2(SrO)0.6(CoO2)0.8(Fe2O3)0.1,249.5685883,457.3387826,20,0,,https://doi.org/10.1016/S0167-2738(98)00428-7,O+E
(Sm2O3)0.2(SrO)0.6(CoO2)0.8(Fe2O3)0.1,342.8228754,374.6774523,20,0,,https://doi.org/10.1016/S0167-2738(98)00428-7,O+E
(Sm2O3)0.2(SrO)0.6(CoO2)0.8(Fe2O3)0.1,345.6630461,308.9939577,20,0,,https://doi.org/10.1016/S0167-2738(98)00428-7,O+E
(Sm2O3)0.2(SrO)0.6(CoO2)0.8(Fe2O3)0.1,353.0711736,230.6603221,20,0,,https://doi.org/10.1016/S0167-2738(98)00428-7,O+E
(Sm2O3)0.2(SrO)0.6(CoO2)0.8(Fe2O3)0.1,377.7894118,164.1267268,20,0,,https://doi.org/10.1016/S0167-2738(98)00428-7,O+E
(Sm2O3)0.2(SrO)0.6(CoO2)0.8(Fe2O3)0.1,381.1346359,129.3795201,20,0,,https://doi.org/10.1016/S0167-2738(98)00428-7,O+E
(Sm2O3)0.2(SrO)0.6(CoO2)0.8(Fe2O3)0.1,380.8417883,91.84848485,20,0,,https://doi.org/10.1016/S0167-2738(98)00428-7,O+E
(Sm2O3)0.2(SrO)0.6(CoO2)0.8(Fe2O3)0.1,363.7559604,64.65687443,20,0,,https://doi.org/10.1016/S0167-2738(98)00428-7,O+E
(Sm2O3)0.2(SrO)0.6(CoO2)0.8(Fe2O3)0.1,359.0126421,44.71163183,20,0,,https://doi.org/10.1016/S0167-2738(98)00428-7,O+E
(Sm2O3)0.2(SrO)0.6(CoO2)0.8(Fe2O3)0.1,373.6020307,32.30479765,20,0,,https://doi.org/10.1016/S0167-2738(98)00428-7,O+E
(Gd2O3)0.2(SrO)0.6(CoO2)0.8(Fe2O3)0.1,105.6652073,978.6893648,20,0,,https://doi.org/10.1016/S0167-2738(98)00428-7,O+E
(Gd2O3)0.2(SrO)0.6(CoO2)0.8(Fe2O3)0.1,116.4890797,730.6260576,20,0,,https://doi.org/10.1016/S0167-2738(98)00428-7,O+E
(Gd2O3)0.2(SrO)0.6(CoO2)0.8(Fe2O3)0.1,143.8140546,581.0521369,20,0,,https://doi.org/10.1016/S0167-2738(98)00428-7,O+E
(Gd2O3)0.2(SrO)0.6(CoO2)0.8(Fe2O3)0.1,150.7822781,483.4714752,20,0,,https://doi.org/10.1016/S0167-2738(98)00428-7,O+E
(Gd2O3)0.2(SrO)0.6(CoO2)0.8(Fe2O3)0.1,144.8814787,405.9601308,20,0,,https://doi.org/10.1016/S0167-2738(98)00428-7,O+E
(Gd2O3)0.2(SrO)0.6(CoO2)0.8(Fe2O3)0.1,125.4778143,370.540542,20,0,,https://doi.org/10.1016/S0167-2738(98)00428-7,O+E
(Gd2O3)0.2(SrO)0.6(CoO2)0.8(Fe2O3)0.1,110.2453765,313.6159955,20,0,,https://doi.org/10.1016/S0167-2738(98)00428-7,O+E
(Gd2O3)0.2(SrO)0.6(CoO2)0.8(Fe2O3)0.1,93.1725828,269.3545575,20,0,,https://doi.org/10.1016/S0167-2738(98)00428-7,O+E
(Gd2O3)0.2(SrO)0.6(CoO2)0.8(Fe2O3)0.1,82.74129026,228.3428827,20,0,,https://doi.org/10.1016/S0167-2738(98)00428-7,O+E
(Gd2O3)0.2(SrO)0.6(CoO2)0.8(Fe2O3)0.1,60.72059424,176.1364196,20,0,,https://doi.org/10.1016/S0167-2738(98)00428-7,O+E
(Gd2O3)0.2(SrO)0.6(CoO2)0.8(Fe2O3)0.1,49.16052824,139.5972379,20,0,,https://doi.org/10.1016/S0167-2738(98)00428-7,O+E
(Gd2O3)0.2(SrO)0.6(CoO2)0.8(Fe2O3)0.1,39.88869203,105.2000942,20,0,,https://doi.org/10.1016/S0167-2738(98)00428-7,O+E
(Gd2O3)0.2(SrO)0.6(CoO2)0.8(Fe2O3)0.1,32.12065743,67.80133603,20,0,,https://doi.org/10.1016/S0167-2738(98)00428-7,O+E
(Gd2O3)0.2(SrO)0.6(CoO2)0.8(Fe2O3)0.1,28.24539896,45.14398393,20,0,,https://doi.org/10.1016/S0167-2738(98)00428-7,O+E
(Gd2O3)0.2(SrO)0.6(CoO2)0.8(Fe2O3)0.1,25.7089061,28.44085725,20,0,,https://doi.org/10.1016/S0167-2738(98)00428-7,O+E
(BaO)0.5(SrO)0.5(CeO2)0.8(Y2O3)0.1,0.017360938,797.293556,0,1.9,,https://doi.org/10.1016/j.jallcom.2010.06.188,H
(BaO)0.5(SrO)0.5(CeO2)0.8(Y2O3)0.1,0.014315224,748.5398457,0,1.9,,https://doi.org/10.1016/j.jallcom.2010.06.188,H
(BaO)0.5(SrO)0.5(CeO2)0.8(Y2O3)0.1,0.010839421,697.5462955,0,1.9,,https://doi.org/10.1016/j.jallcom.2010.06.188,H
(BaO)0.5(SrO)0.5(CeO2)0.8(Y2O3)0.1,0.008213115,648.4745261,0,1.9,,https://doi.org/10.1016/j.jallcom.2010.06.188,H
(BaO)0.5(SrO)0.5(CeO2)0.8(Y2O3)0.1,0.006434503,598.8624023,0,1.9,,https://doi.org/10.1016/j.jallcom.2010.06.188,H
(BaO)0.5(SrO)0.5(CeO2)0.8(Y2O3)0.1,0.004905884,549.6489577,0,1.9,,https://doi.org/10.1016/j.jallcom.2010.06.188,H
(BaO)0.5(SrO)0.5(CeO2)0.8(Y2O3)0.1,0.003535222,500.5321083,0,1.9,,https://doi.org/10.1016/j.jallcom.2010.06.188,H
(BaO)0.5(SrO)0.5(CeO2)0.8(Y2O3)0.1,0.002340687,450.6132867,0,1.9,,https://doi.org/10.1016/j.jallcom.2010.06.188,H
(BaO)0.8(SrO)0.2(CeO2)0.8(Y2O3)0.1,0.026404608,797.1285775,0,1.9,,https://doi.org/10.1016/j.jallcom.2010.06.188,H
(BaO)0.8(SrO)0.2(CeO2)0.8(Y2O3)0.1,0.021129745,748.4002875,0,1.9,,https://doi.org/10.1016/j.jallcom.2010.06.188,H
(BaO)0.8(SrO)0.2(CeO2)0.8(Y2O3)0.1,0.019148829,697.3621911,0,1.9,,https://doi.org/10.1016/j.jallcom.2010.06.188,H
(BaO)0.8(SrO)0.2(CeO2)0.8(Y2O3)0.1,0.016852898,648.2649028,0,1.9,,https://doi.org/10.1016/j.jallcom.2010.06.188,H
(BaO)0.8(SrO)0.2(CeO2)0.8(Y2O3)0.1,0.013604516,598.6669238,0,1.9,,https://doi.org/10.1016/j.jallcom.2010.06.188,H
(BaO)0.8(SrO)0.2(CeO2)0.8(Y2O3)0.1,0.011347479,549.454043,0,1.9,,https://doi.org/10.1016/j.jallcom.2010.06.188,H
(BaO)0.8(SrO)0.2(CeO2)0.8(Y2O3)0.1,0.007711819,499.3457716,0,1.9,,https://doi.org/10.1016/j.jallcom.2010.06.188,H
(BaO)0.8(SrO)0.2(CeO2)0.8(Y2O3)0.1,0.005413934,450.4624729,0,1.9,,https://doi.org/10.1016/j.jallcom.2010.06.188,H
(BaO)0.9(SrO)0.1(CeO2)0.8(Y2O3)0.1,0.027207419,797.1167953,0,1.9,,https://doi.org/10.1016/j.jallcom.2010.06.188,H
(BaO)0.9(SrO)0.1(CeO2)0.8(Y2O3)0.1,0.024543202,748.3466215,0,1.9,,https://doi.org/10.1016/j.jallcom.2010.06.188,H
(BaO)0.9(SrO)0.1(CeO2)0.8(Y2O3)0.1,0.022880239,698.9244492,0,1.9,,https://doi.org/10.1016/j.jallcom.2010.06.188,H
(BaO)0.9(SrO)0.1(CeO2)0.8(Y2O3)0.1,0.020783716,648.2037806,0,1.9,,https://doi.org/10.1016/j.jallcom.2010.06.188,H
(BaO)0.9(SrO)0.1(CeO2)0.8(Y2O3)0.1,0.018354828,598.5887569,0,1.9,,https://doi.org/10.1016/j.jallcom.2010.06.188,H
(BaO)0.9(SrO)0.1(CeO2)0.8(Y2O3)0.1,0.01441954,549.39837,0,1.9,,https://doi.org/10.1016/j.jallcom.2010.06.188,H
(BaO)0.9(SrO)0.1(CeO2)0.8(Y2O3)0.1,0.010404462,499.2844025,0,1.9,,https://doi.org/10.1016/j.jallcom.2010.06.188,H
(BaO)0.9(SrO)0.1(CeO2)0.8(Y2O3)0.1,0.007745431,451.2981252,0,1.9,,https://doi.org/10.1016/j.jallcom.2010.06.188,H
(La2O3)0.45(SrO)0.1(YbO)0.8(Y2O3)0.1,9.11447E-05,500,0,1.9,,https://doi.org/10.1016/j.ssi.2013.11.044,O
(La2O3)0.45(SrO)0.1(YbO)0.8(Y2O3)0.1,0.00026474,600,0,1.9,,https://doi.org/10.1016/j.ssi.2013.11.044,O
(La2O3)0.45(SrO)0.1(YbO)0.8(Y2O3)0.1,0.000530679,700,0,1.9,,https://doi.org/10.1016/j.ssi.2013.11.044,O
(La2O3)0.45(SrO)0.1(YbO)0.8(Y2O3)0.1,0.000883708,800,0,1.9,,https://doi.org/10.1016/j.ssi.2013.11.044,O
(La2O3)0.45(SrO)0.1(YbO)0.8(Y2O3)0.1,0.001404918,900,0,1.9,,https://doi.org/10.1016/j.ssi.2013.11.044,O
(La2O3)0.45(SrO)0.1(YbO)0.8(In2O3)0.1,0.000239883,400,0,1.9,,https://doi.org/10.1016/j.ssi.2013.11.044,O+H
(La2O3)0.45(SrO)0.1(YbO)0.8(In2O3)0.1,0.000954993,500,0,1.9,,https://doi.org/10.1016/j.ssi.2013.11.044,O+H
(La2O3)0.45(SrO)0.1(YbO)0.8(In2O3)0.1,0.002187762,600,0,1.9,,https://doi.org/10.1016/j.ssi.2013.11.044,O+H
(La2O3)0.45(SrO)0.1(YbO)0.8(In2O3)0.1,0.003019952,800,0,1.9,,https://doi.org/10.1016/j.ssi.2013.11.044,O
(La2O3)0.45(SrO)0.1(YbO)0.8(In2O3)0.1,0.003801894,900,0,1.9,,https://doi.org/10.1016/j.ssi.2013.11.044,O
(BaO)1(ZrO2)0.1(CeO2)0.7(Y2O3)0.1,0.020374685,698.1581794,0,4,,https://doi.org/10.1002/adma.200601366,H
(BaO)1(ZrO2)0.1(CeO2)0.7(Y2O3)0.1,0.01822242,649.9313697,0,4,,https://doi.org/10.1002/adma.200601366,H
(BaO)1(ZrO2)0.1(CeO2)0.7(Y2O3)0.1,0.014988479,600.577818,0,4,,https://doi.org/10.1002/adma.200601366,H
(BaO)1(ZrO2)0.1(CeO2)0.7(Y2O3)0.1,0.012677403,549.8978873,0,4,,https://doi.org/10.1002/adma.200601366,H
(BaO)1(ZrO2)0.1(CeO2)0.7(Y2O3)0.1,0.009069342,500.3304045,0,4,,https://doi.org/10.1002/adma.200601366,H
(BaO)1(ZrO2)0.1(CeO2)0.7(Y2O3)0.1,0.005967021,448.5884992,0,4,,https://doi.org/10.1002/adma.200601366,H
(BaO)1(ZrO2)0.1(CeO2)0.7(Y2O3)0.1,0.004389593,399.9468096,0,4,,https://doi.org/10.1002/adma.200601366,H
(BaO)1(ZrO2)0.1(CeO2)0.7(Y2O3)0.1,0.002511886,347.3061625,0,4,,https://doi.org/10.1002/adma.200601366,H
(BaO)1(ZrO2)0.1(CeO2)0.7(Y2O3)0.1,0.001057408,298.6612299,0,4,,https://doi.org/10.1002/adma.200601366,H
(BaO)1(CeO2)0.2(ZrO2)0.6(Dy2O3)0.1,0.066604608,900.2851986,20,1.9,2.3,https://doi.org/10.1016/j.electacta.2018.07.179,H+E
(BaO)1(CeO2)0.2(ZrO2)0.6(Dy2O3)0.1,0.058544453,851.567474,20,1.9,2.3,https://doi.org/10.1016/j.electacta.2018.07.179,H+E
(BaO)1(CeO2)0.2(ZrO2)0.6(Dy2O3)0.1,0.049309536,799.6072607,20,1.9,2.3,https://doi.org/10.1016/j.electacta.2018.07.179,H+E
(BaO)1(CeO2)0.2(ZrO2)0.6(Dy2O3)0.1,0.04108592,749.0125786,20,1.9,2.3,https://doi.org/10.1016/j.electacta.2018.07.179,H+E
(BaO)1(CeO2)0.2(ZrO2)0.6(Dy2O3)0.1,0.034230994,701.5127436,20,1.9,2.3,https://doi.org/10.1016/j.electacta.2018.07.179,H+E
(BaO)1(CeO2)0.2(ZrO2)0.6(Dy2O3)0.1,0.026747254,650.2954545,20,1.9,2.3,https://doi.org/10.1016/j.electacta.2018.07.179,H+E
(BaO)1(CeO2)0.2(ZrO2)0.6(Dy2O3)0.1,0.021346512,600.655914,20,1.9,2.3,https://doi.org/10.1016/j.electacta.2018.07.179,H+E
(BaO)1(CeO2)0.2(ZrO2)0.6(Dy2O3)0.1,0.015808695,550.8276299,20,1.9,2.3,https://doi.org/10.1016/j.electacta.2018.07.179,H+E
(BaO)1(CeO2)0.2(ZrO2)0.6(Dy2O3)0.1,0.011336249,499.8894174,20,1.9,2.3,https://doi.org/10.1016/j.electacta.2018.07.179,H+E
(BaO)1(CeO2)0.2(ZrO2)0.6(Dy2O3)0.1,0.019365871,900.2851986,0,1.9,2.3,https://doi.org/10.1016/j.electacta.2018.07.179,H
(BaO)1(CeO2)0.2(ZrO2)0.6(Dy2O3)0.1,0.018557459,851.567474,0,1.9,2.3,https://doi.org/10.1016/j.electacta.2018.07.179,H
(BaO)1(CeO2)0.2(ZrO2)0.6(Dy2O3)0.1,0.018165998,799.6072607,0,1.9,2.3,https://doi.org/10.1016/j.electacta.2018.07.179,H
(BaO)1(CeO2)0.2(ZrO2)0.6(Dy2O3)0.1,0.017973375,749.0125786,0,1.9,2.3,https://doi.org/10.1016/j.electacta.2018.07.179,H
(BaO)1(CeO2)0.2(ZrO2)0.6(Dy2O3)0.1,0.017973375,701.5127436,0,1.9,2.3,https://doi.org/10.1016/j.electacta.2018.07.179,H
(BaO)1(CeO2)0.2(ZrO2)0.6(Dy2O3)0.1,0.017407674,650.2954545,0,1.9,2.3,https://doi.org/10.1016/j.electacta.2018.07.179,H
(BaO)1(CeO2)0.2(ZrO2)0.6(Dy2O3)0.1,0.016859778,600.655914,0,1.9,2.3,https://doi.org/10.1016/j.electacta.2018.07.179,H
(BaO)1(CeO2)0.2(ZrO2)0.6(Dy2O3)0.1,0.015317405,550.8276299,0,1.9,2.3,https://doi.org/10.1016/j.electacta.2018.07.179,H
(BaO)1(CeO2)0.2(ZrO2)0.6(Dy2O3)0.1,0.012915497,499.8894174,0,1.9,2.3,https://doi.org/10.1016/j.electacta.2018.07.179,H
(BaO)1(CeO2)0.2(ZrO2)0.6(Y2O3)0.1,0.000131845,413.1246969,0,1.9,,https://doi.org/10.1016/j.ijhydene.2011.04.106,H
(BaO)1(CeO2)0.2(ZrO2)0.6(Y2O3)0.1,0.000715177,451.2955678,0,1.9,,https://doi.org/10.1016/j.ijhydene.2011.04.106,H
(BaO)1(CeO2)0.2(ZrO2)0.6(Y2O3)0.1,0.001355882,472.6566366,0,1.9,,https://doi.org/10.1016/j.ijhydene.2011.04.106,H
(BaO)1(CeO2)0.2(ZrO2)0.6(Y2O3)0.1,0.002571011,491.9600821,0,1.9,,https://doi.org/10.1016/j.ijhydene.2011.04.106,H
(BaO)1(CeO2)0.2(ZrO2)0.6(Y2O3)0.1,0.004416713,512.0924559,0,1.9,,https://doi.org/10.1016/j.ijhydene.2011.04.106,H
(BaO)1(CeO2)0.2(ZrO2)0.6(Y2O3)0.1,0.008237756,532.2199305,0,1.9,,https://doi.org/10.1016/j.ijhydene.2011.04.106,H
(BaO)1(CeO2)0.2(ZrO2)0.6(Y2O3)0.1,0.012005768,551.9505778,0,1.9,,https://doi.org/10.1016/j.ijhydene.2011.04.106,H
(BaO)1(CeO2)0.2(ZrO2)0.6(Y2O3)0.1,0.017786255,572.5032946,0,1.9,,https://doi.org/10.1016/j.ijhydene.2011.04.106,H
(BaO)1(CeO2)0.2(ZrO2)0.6(Y2O3)0.1,0.022003233,585.2478211,0,1.9,,https://doi.org/10.1016/j.ijhydene.2011.04.106,H
(BaO)1(CeO2)0.3(ZrO2)0.5(Dy2O3)0.1,0.074090915,900.2851986,20,1.9,1.9,https://doi.org/10.1016/j.electacta.2018.07.179,H+E
(BaO)1(CeO2)0.3(ZrO2)0.5(Dy2O3)0.1,0.062411344,851.567474,20,1.9,1.9,https://doi.org/10.1016/j.electacta.2018.07.179,H+E
(BaO)1(CeO2)0.3(ZrO2)0.5(Dy2O3)0.1,0.053699216,799.6072607,20,1.9,1.9,https://doi.org/10.1016/j.electacta.2018.07.179,H+E
(BaO)1(CeO2)0.3(ZrO2)0.5(Dy2O3)0.1,0.045223033,749.0125786,20,1.9,1.9,https://doi.org/10.1016/j.electacta.2018.07.179,H+E
(BaO)1(CeO2)0.3(ZrO2)0.5(Dy2O3)0.1,0.038900686,701.5127436,20,1.9,1.9,https://doi.org/10.1016/j.electacta.2018.07.179,H+E
(BaO)1(CeO2)0.3(ZrO2)0.5(Dy2O3)0.1,0.030074965,650.2954545,20,1.9,1.9,https://doi.org/10.1016/j.electacta.2018.07.179,H+E
(BaO)1(CeO2)0.3(ZrO2)0.5(Dy2O3)0.1,0.023747791,600.655914,20,1.9,1.9,https://doi.org/10.1016/j.electacta.2018.07.179,H+E
(BaO)1(CeO2)0.3(ZrO2)0.5(Dy2O3)0.1,0.017966007,550.8276299,20,1.9,1.9,https://doi.org/10.1016/j.electacta.2018.07.179,H+E
(BaO)1(CeO2)0.3(ZrO2)0.5(Dy2O3)0.1,0.013161397,499.8894174,20,1.9,1.9,https://doi.org/10.1016/j.electacta.2018.07.179,H+E
(BaO)1(CeO2)0.3(ZrO2)0.5(Dy2O3)0.1,0.022008609,900.2851986,0,1.9,1.9,https://doi.org/10.1016/j.electacta.2018.07.179,H
(BaO)1(CeO2)0.3(ZrO2)0.5(Dy2O3)0.1,0.020644997,851.567474,0,1.9,1.9,https://doi.org/10.1016/j.electacta.2018.07.179,H
(BaO)1(CeO2)0.3(ZrO2)0.5(Dy2O3)0.1,0.019783189,799.6072607,0,1.9,1.9,https://doi.org/10.1016/j.electacta.2018.07.179,H
(BaO)1(CeO2)0.3(ZrO2)0.5(Dy2O3)0.1,0.019365871,749.0125786,0,1.9,1.9,https://doi.org/10.1016/j.electacta.2018.07.179,H
(BaO)1(CeO2)0.3(ZrO2)0.5(Dy2O3)0.1,0.019160525,701.5127436,0,1.9,1.9,https://doi.org/10.1016/j.electacta.2018.07.179,H
(BaO)1(CeO2)0.3(ZrO2)0.5(Dy2O3)0.1,0.019160525,650.2954545,0,1.9,1.9,https://doi.org/10.1016/j.electacta.2018.07.179,H
(BaO)1(CeO2)0.3(ZrO2)0.5(Dy2O3)0.1,0.018557459,600.655914,0,1.9,1.9,https://doi.org/10.1016/j.electacta.2018.07.179,H
(BaO)1(CeO2)0.3(ZrO2)0.5(Dy2O3)0.1,0.016859778,550.8276299,0,1.9,1.9,https://doi.org/10.1016/j.electacta.2018.07.179,H
(BaO)1(CeO2)0.3(ZrO2)0.5(Dy2O3)0.1,0.014216012,499.8894174,0,1.9,1.9,https://doi.org/10.1016/j.electacta.2018.07.179,H
(BaO)1(CeO2)0.3(ZrO2)0.5(Y2O3)0.1,0.008761763,753.692183,0,1.9,3,https://doi.org/10.1016/j.ssi.2008.04.002,H
(BaO)1(CeO2)0.3(ZrO2)0.5(Y2O3)0.1,0.007194827,701.2528011,0,1.9,3,https://doi.org/10.1016/j.ssi.2008.04.002,H
(BaO)1(CeO2)0.3(ZrO2)0.5(Y2O3)0.1,0.005717931,651.4084135,0,1.9,3,https://doi.org/10.1016/j.ssi.2008.04.002,H
(BaO)1(CeO2)0.3(ZrO2)0.5(Y2O3)0.1,0.004470063,601.9353384,0,1.9,3,https://doi.org/10.1016/j.ssi.2008.04.002,H
(BaO)1(CeO2)0.3(ZrO2)0.5(Y2O3)0.1,0.00287213,551.4706158,0,1.9,3,https://doi.org/10.1016/j.ssi.2008.04.002,H
(BaO)1(CeO2)0.3(ZrO2)0.5(Y2O3)0.1,0.001700419,501.227203,0,1.9,3,https://doi.org/10.1016/j.ssi.2008.04.002,H
(BaO)1(CeO2)0.3(ZrO2)0.5(Y2O3)0.1,0.001057016,450.619108,0,1.9,3,https://doi.org/10.1016/j.ssi.2008.04.002,H
(BaO)1(CeO2)0.3(ZrO2)0.5(Y2O3)0.1,0.000539988,400.2069293,0,1.9,3,https://doi.org/10.1016/j.ssi.2008.04.002,H
(BaO)1(CeO2)0.3(ZrO2)0.5(Y2O3)0.1,0.000202199,349.48481,0,1.9,3,https://doi.org/10.1016/j.ssi.2008.04.002,H
(BaO)1(ZrO2)0.3(CeO2)0.5(Y2O3)0.1,0.013207033,800,0,2,,https://doi.org/10.1016/j.jpowsour.2013.07.060,H
(BaO)1(ZrO2)0.3(CeO2)0.5(Y2O3)0.1,0.011450433,750,0,2,,https://doi.org/10.1016/j.jpowsour.2013.07.060,H
(BaO)1(ZrO2)0.3(CeO2)0.5(Y2O3)0.1,0.010095824,700,0,2,,https://doi.org/10.1016/j.jpowsour.2013.07.060,H
(BaO)1(ZrO2)0.3(CeO2)0.5(Y2O3)0.1,0.009205236,650,0,2,,https://doi.org/10.1016/j.jpowsour.2013.07.060,H
(BaO)1(ZrO2)0.3(CeO2)0.5(Y2O3)0.1,0.00859064,600,0,2,,https://doi.org/10.1016/j.jpowsour.2013.07.060,H
(BaO)1(ZrO2)0.3(CeO2)0.5(Y2O3)0.1,0.007754398,550,0,2,,https://doi.org/10.1016/j.jpowsour.2013.07.060,H
(BaO)1(ZrO2)0.3(CeO2)0.5(Y2O3)0.1,0.00608723,500,0,2,,https://doi.org/10.1016/j.jpowsour.2013.07.060,H
(BaO)1(ZrO2)0.3(CeO2)0.5(Y2O3)0.1,0.004194534,450,0,2,,https://doi.org/10.1016/j.jpowsour.2013.07.060,H
(BaO)1(ZrO2)0.3(CeO2)0.5(Y2O3)0.1,0.002513603,400,0,2,,https://doi.org/10.1016/j.jpowsour.2013.07.060,H
(BaO)1(CeO2)0.3(ZrO2)0.5(Y2O3)0.1,0.0044,600,0,1.9,,https://doi.org/10.1039/B902343G,H
(BaO)0.5(SrO)0.5(Fe2O3)0.45(NbO2)0.1,0.101694915,51.94805195,20,0,,https://doi.org/10.1016/j.jallcom.2012.07.115,O+E
(BaO)0.5(SrO)0.5(Fe2O3)0.45(NbO2)0.1,0.161016949,98.7012987,20,0,,https://doi.org/10.1016/j.jallcom.2012.07.115,O+E
(BaO)0.5(SrO)0.5(Fe2O3)0.45(NbO2)0.1,0.457627119,148.0519481,20,0,,https://doi.org/10.1016/j.jallcom.2012.07.115,O+E
(BaO)0.5(SrO)0.5(Fe2O3)0.45(NbO2)0.1,1.050847458,200,20,0,,https://doi.org/10.1016/j.jallcom.2012.07.115,O+E
(BaO)0.5(SrO)0.5(Fe2O3)0.45(NbO2)0.1,2.237288136,249.3506494,20,0,,https://doi.org/10.1016/j.jallcom.2012.07.115,O+E
(BaO)0.5(SrO)0.5(Fe2O3)0.45(NbO2)0.1,3.838983051,298.7012987,20,0,,https://doi.org/10.1016/j.jallcom.2012.07.115,O+E
(BaO)0.5(SrO)0.5(Fe2O3)0.45(NbO2)0.1,7.872881356,350.6493506,20,0,,https://doi.org/10.1016/j.jallcom.2012.07.115,O+E
(BaO)0.5(SrO)0.5(Fe2O3)0.45(NbO2)0.1,11.96610169,400,20,0,,https://doi.org/10.1016/j.jallcom.2012.07.115,O+E
(BaO)0.5(SrO)0.5(Fe2O3)0.45(NbO2)0.1,13.98305085,451.9480519,20,0,,https://doi.org/10.1016/j.jallcom.2012.07.115,E
(BaO)0.5(SrO)0.5(Fe2O3)0.45(NbO2)0.1,12.20338983,501.2987013,20,0,,https://doi.org/10.1016/j.jallcom.2012.07.115,E
(BaO)0.5(SrO)0.5(Fe2O3)0.45(NbO2)0.1,10.30508475,548.0519481,20,0,,https://doi.org/10.1016/j.jallcom.2012.07.115,E
(BaO)0.5(SrO)0.5(Fe2O3)0.45(NbO2)0.1,8.644067797,600,20,0,,https://doi.org/10.1016/j.jallcom.2012.07.115,E
(BaO)0.5(SrO)0.5(Fe2O3)0.45(NbO2)0.1,7.872881356,649.3506494,20,0,,https://doi.org/10.1016/j.jallcom.2012.07.115,E
(BaO)0.5(SrO)0.5(Fe2O3)0.45(NbO2)0.1,7.279661017,701.2987013,20,0,,https://doi.org/10.1016/j.jallcom.2012.07.115,E
(BaO)0.5(SrO)0.5(Fe2O3)0.45(NbO2)0.1,7.101694915,750.6493506,20,0,,https://doi.org/10.1016/j.jallcom.2012.07.115,E
(BaO)0.5(SrO)0.5(Fe2O3)0.45(NbO2)0.1,6.86440678,797.4025974,20,0,,https://doi.org/10.1016/j.jallcom.2012.07.115,E
(BaO)0.5(SrO)0.5(Fe2O3)0.45(NbO2)0.1,6.686440678,849.3506494,20,0,,https://doi.org/10.1016/j.jallcom.2012.07.115,E
(BaO)0.5(SrO)0.5(Fe2O3)0.45(NbO2)0.1,6.56779661,898.7012987,20,0,,https://doi.org/10.1016/j.jallcom.2012.07.115,E
(La2O3)0.25(SrO)0.5(Fe2O3)0.45(MoO2)0.1,0.472392638,300,0,0,,https://doi.org/10.1016/j.electacta.2017.09.157,H+E
(La2O3)0.25(SrO)0.5(Fe2O3)0.45(MoO2)0.1,0.601226994,349.3506494,0,0,,https://doi.org/10.1016/j.electacta.2017.09.157,H+E
(La2O3)0.25(SrO)0.5(Fe2O3)0.45(MoO2)0.1,0.81595092,398.7012987,0,0,,https://doi.org/10.1016/j.electacta.2017.09.157,H+E
(La2O3)0.25(SrO)0.5(Fe2O3)0.45(MoO2)0.1,1.073619632,450.6493506,0,0,,https://doi.org/10.1016/j.electacta.2017.09.157,H+E
(La2O3)0.25(SrO)0.5(Fe2O3)0.45(MoO2)0.1,1.417177914,500,0,0,,https://doi.org/10.1016/j.electacta.2017.09.157,H+E
(La2O3)0.25(SrO)0.5(Fe2O3)0.45(MoO2)0.1,1.889570552,549.3506494,0,0,,https://doi.org/10.1016/j.electacta.2017.09.157,H+E
(La2O3)0.25(SrO)0.5(Fe2O3)0.45(MoO2)0.1,2.490797546,598.7012987,0,0,,https://doi.org/10.1016/j.electacta.2017.09.157,H+E
(La2O3)0.25(SrO)0.5(Fe2O3)0.45(MoO2)0.1,3.306748466,650.6493506,0,0,,https://doi.org/10.1016/j.electacta.2017.09.157,H+E
(La2O3)0.25(SrO)0.5(Fe2O3)0.45(MoO2)0.1,4.208588957,700,0,0,,https://doi.org/10.1016/j.electacta.2017.09.157,H+E
(La2O3)0.25(SrO)0.5(Fe2O3)0.45(MoO2)0.1,5.196319018,749.3506494,0,0,,https://doi.org/10.1016/j.electacta.2017.09.157,H+E
(La2O3)0.25(SrO)0.5(Fe2O3)0.45(MoO2)0.1,6.18404908,798.7012987,0,0,,https://doi.org/10.1016/j.electacta.2017.09.157,H+E
(La2O3)0.25(SrO)0.5(Fe2O3)0.45(MoO2)0.1,6.871165644,848.0519481,0,0,,https://doi.org/10.1016/j.electacta.2017.09.157,H+E
(La2O3)0.35(SrO)0.3(Ga2O3)0.45(MgO)0.1,0.052,800,1.00E-03,0,,https://doi.org/10.1111/j.1151-2916.1998.tb02662.x,O
(La2O3)0.35(SrO)0.3(Ga2O3)0.45(MgO)0.1,0.026,702,1.00E-03,0,,https://doi.org/10.1111/j.1151-2916.1998.tb02662.x,O
(La2O3)0.35(SrO)0.3(Ga2O3)0.45(MgO)0.1,0.008,595,1.00E-03,0,,https://doi.org/10.1111/j.1151-2916.1998.tb02662.x,O
(La2O3)0.375(SrO)0.25(Ga2O3)0.45(MgO)0.1,0.1,800,1.00E-03,0,,https://doi.org/10.1111/j.1151-2916.1998.tb02662.x,O
(La2O3)0.375(SrO)0.25(Ga2O3)0.45(MgO)0.1,0.051,702,1.00E-03,0,,https://doi.org/10.1111/j.1151-2916.1998.tb02662.x,O
(La2O3)0.375(SrO)0.25(Ga2O3)0.45(MgO)0.1,0.018,595,1.00E-03,0,,https://doi.org/10.1111/j.1151-2916.1998.tb02662.x,O
(La2O3)0.4(SrO)0.2(Ga2O3)0.45(MgO)0.1,0.133,800,1.00E-03,0,,https://doi.org/10.1111/j.1151-2916.1998.tb02662.x,O
(La2O3)0.4(SrO)0.2(Ga2O3)0.45(MgO)0.1,0.067,702,1.00E-03,0,,https://doi.org/10.1111/j.1151-2916.1998.tb02662.x,O
(La2O3)0.4(SrO)0.2(Ga2O3)0.45(MgO)0.1,0.024,595,1.00E-03,0,,https://doi.org/10.1111/j.1151-2916.1998.tb02662.x,O
(La2O3)0.425(SrO)0.15(Ga2O3)0.45(MgO)0.1,0.132,800,1.00E-03,0,,https://doi.org/10.1111/j.1151-2916.1998.tb02662.x,O