Composition,Conductivity (S/cm),Temperature (degC),PO2 (%),PH2O (%),Grainsize,Ref,Carrier Type
(BaO)1(Fe2O3)0.475(In2O3)0.025,5.31496063,438.7755102,20,0,,https://doi.org/10.1016/j.jpowsour.2016.05.089,O+E
(BaO)1(Fe2O3)0.475(In2O3)0.025,5.62992126,451.0204082,20,0,,https://doi.org/10.1016/j.jpowsour.2016.05.089,O+E
(BaO)1(Fe2O3)0.475(In2O3)0.025,5.94488189,459.1836735,20,0,,https://doi.org/10.1016/j.jpowsour.2016.05.089,O+E
(BaO)1(Fe2O3)0.475(In2O3)0.025,6.377952756,469.3877551,20,0,,https://doi.org/10.1016/j.jpowsour.2016.05.089,O+E
(BaO)1(Fe2O3)0.475(In2O3)0.025,6.771653543,479.5918367,20,0,,https://doi.org/10.1016/j.jpowsour.2016.05.089,O+E
(BaO)1(Fe2O3)0.475(In2O3)0.025,7.125984252,489.7959184,20,0,,https://doi.org/10.1016/j.jpowsour.2016.05.089,O+E
(BaO)1(Fe2O3)0.475(In2O3)0.025,7.401574803,500,20,0,,https://doi.org/10.1016/j.jpowsour.2016.05.089,O+E
(BaO)1(Fe2O3)0.475(In2O3)0.025,7.519685039,510.2040816,20,0,,https://doi.org/10.1016/j.jpowsour.2016.05.089,O+E
(BaO)1(Fe2O3)0.475(In2O3)0.025,7.677165354,518.3673469,20,0,,https://doi.org/10.1016/j.jpowsour.2016.05.089,O+E
(BaO)1(Fe2O3)0.475(In2O3)0.025,7.795275591,528.5714286,20,0,,https://doi.org/10.1016/j.jpowsour.2016.05.089,E
(BaO)1(Fe2O3)0.475(In2O3)0.025,7.598425197,538.7755102,20,0,,https://doi.org/10.1016/j.jpowsour.2016.05.089,E
(BaO)1(Fe2O3)0.475(In2O3)0.025,7.401574803,546.9387755,20,0,,https://doi.org/10.1016/j.jpowsour.2016.05.089,E
(BaO)1(Fe2O3)0.475(In2O3)0.025,7.047244094,557.1428571,20,0,,https://doi.org/10.1016/j.jpowsour.2016.05.089,E
(BaO)1(Fe2O3)0.475(In2O3)0.025,6.653543307,569.3877551,20,0,,https://doi.org/10.1016/j.jpowsour.2016.05.089,E
(BaO)1(Fe2O3)0.475(In2O3)0.025,6.456692913,579.5918367,20,0,,https://doi.org/10.1016/j.jpowsour.2016.05.089,E
(BaO)1(Fe2O3)0.475(In2O3)0.025,6.299212598,587.755102,20,0,,https://doi.org/10.1016/j.jpowsour.2016.05.089,E
(BaO)1(Fe2O3)0.475(In2O3)0.025,6.141732283,600,20,0,,https://doi.org/10.1016/j.jpowsour.2016.05.089,E
(BaO)1(Fe2O3)0.475(In2O3)0.025,5.905511811,610.2040816,20,0,,https://doi.org/10.1016/j.jpowsour.2016.05.089,E
(BaO)1(Fe2O3)0.475(In2O3)0.025,5.708661417,620.4081633,20,0,,https://doi.org/10.1016/j.jpowsour.2016.05.089,E
(BaO)1(Fe2O3)0.475(In2O3)0.025,5.472440945,628.5714286,20,0,,https://doi.org/10.1016/j.jpowsour.2016.05.089,E
(BaO)1(Fe2O3)0.475(In2O3)0.025,5.275590551,638.7755102,20,0,,https://doi.org/10.1016/j.jpowsour.2016.05.089,E
(BaO)1(Fe2O3)0.475(In2O3)0.025,5.039370079,651.0204082,20,0,,https://doi.org/10.1016/j.jpowsour.2016.05.089,E
(BaO)1(Fe2O3)0.475(In2O3)0.025,4.960629921,663.2653061,20,0,,https://doi.org/10.1016/j.jpowsour.2016.05.089,E
(BaO)1(Fe2O3)0.475(In2O3)0.025,4.803149606,675.5102041,20,0,,https://doi.org/10.1016/j.jpowsour.2016.05.089,E
(BaO)1(Fe2O3)0.475(In2O3)0.025,4.606299213,687.755102,20,0,,https://doi.org/10.1016/j.jpowsour.2016.05.089,E
(BaO)1(Fe2O3)0.475(In2O3)0.025,4.448818898,700,20,0,,https://doi.org/10.1016/j.jpowsour.2016.05.089,E
(BaO)1(Fe2O3)0.475(In2O3)0.025,4.330708661,714.2857143,20,0,,https://doi.org/10.1016/j.jpowsour.2016.05.089,E
(BaO)1(Fe2O3)0.475(In2O3)0.025,4.173228346,728.5714286,20,0,,https://doi.org/10.1016/j.jpowsour.2016.05.089,E
(BaO)1(Fe2O3)0.475(In2O3)0.025,4.015748031,740.8163265,20,0,,https://doi.org/10.1016/j.jpowsour.2016.05.089,E
(BaO)1(Fe2O3)0.475(In2O3)0.025,3.858267717,759.1836735,20,0,,https://doi.org/10.1016/j.jpowsour.2016.05.089,E
(BaO)1(Fe2O3)0.475(In2O3)0.025,3.661417323,773.4693878,20,0,,https://doi.org/10.1016/j.jpowsour.2016.05.089,E
(BaO)1(Fe2O3)0.475(In2O3)0.025,3.582677165,789.7959184,20,0,,https://doi.org/10.1016/j.jpowsour.2016.05.089,E
(BaO)1(Fe2O3)0.475(In2O3)0.025,3.42519685,810.2040816,20,0,,https://doi.org/10.1016/j.jpowsour.2016.05.089,E
(BaO)1(Fe2O3)0.475(In2O3)0.025,3.267716535,826.5306122,20,0,,https://doi.org/10.1016/j.jpowsour.2016.05.089,E
(BaO)1(Fe2O3)0.475(In2O3)0.025,3.149606299,846.9387755,20,0,,https://doi.org/10.1016/j.jpowsour.2016.05.089,E
(BaO)1(Fe2O3)0.475(In2O3)0.025,3.031496063,869.3877551,20,0,,https://doi.org/10.1016/j.jpowsour.2016.05.089,E
(BaO)1(Fe2O3)0.475(In2O3)0.025,2.952755906,891.8367347,20,0,,https://doi.org/10.1016/j.jpowsour.2016.05.089,E
(BaO)1(Fe2O3)0.475(In2O3)0.025,2.952755906,904.0816327,20,0,,https://doi.org/10.1016/j.jpowsour.2016.05.089,E
(BaO)1(CeO2)0.98(Sm2O3)0.01,0.010582114,900.4059448,20,1.9,,https://doi.org/10.1016/j.jpowsour.2008.01.036,O+H
(BaO)1(CeO2)0.98(Sm2O3)0.01,0.008007527,849.7108819,20,1.9,,https://doi.org/10.1016/j.jpowsour.2008.01.036,O+H
(BaO)1(CeO2)0.98(Sm2O3)0.01,0.00576664,799.6246239,20,1.9,,https://doi.org/10.1016/j.jpowsour.2008.01.036,O+H
(BaO)1(CeO2)0.98(Sm2O3)0.01,0.004019083,749.9269747,20,1.9,,https://doi.org/10.1016/j.jpowsour.2008.01.036,O+H
(BaO)1(CeO2)0.98(Sm2O3)0.01,0.002454813,700.4983725,20,1.9,,https://doi.org/10.1016/j.jpowsour.2008.01.036,O+H
(BaO)1(CeO2)0.98(Sm2O3)0.01,0.00171177,650.3009405,20,1.9,,https://doi.org/10.1016/j.jpowsour.2008.01.036,O+H
(BaO)1(CeO2)0.98(Sm2O3)0.01,0.001234213,599.7724672,20,1.9,,https://doi.org/10.1016/j.jpowsour.2008.01.036,O+H
(CaO)1(ZrO2)0.995(Al2O3)0.0025,0.000736388,1421.52182,1,1,,https://doi.org/10.1016/j.electacta.2010.10.098,H+E
(CaO)1(ZrO2)0.995(Al2O3)0.0025,0.000386829,1315.337685,1,1,,https://doi.org/10.1016/j.electacta.2010.10.098,H+E
(CaO)1(ZrO2)0.995(Al2O3)0.0025,0.000277989,1210.739837,1,1,,https://doi.org/10.1016/j.electacta.2010.10.098,H+E
(CaO)1(ZrO2)0.995(Al2O3)0.0025,0.000192903,1100.212942,1,1,,https://doi.org/10.1016/j.electacta.2010.10.098,H+E
(CaO)1(ZrO2)0.995(Al2O3)0.0025,0.000173628,1005.011204,1,1,,https://doi.org/10.1016/j.electacta.2010.10.098,H
(CaO)1(ZrO2)0.995(Al2O3)0.0025,0.000126843,901.3886744,1,1,,https://doi.org/10.1016/j.electacta.2010.10.098,H
(CaO)1(ZrO2)0.995(Al2O3)0.0025,7.41674E-05,807.5210184,1,1,,https://doi.org/10.1016/j.electacta.2010.10.098,H
(CaO)1(ZrO2)0.995(Al2O3)0.0025,3.09078E-05,705.8146956,1,1,,https://doi.org/10.1016/j.electacta.2010.10.098,H
(CaO)1(ZrO2)0.995(Al2O3)0.0025,8.75908E-06,602.2997602,1,1,,https://doi.org/10.1016/j.electacta.2010.10.098,H
(CaO)1(ZrO2)0.995(Al2O3)0.0025,0.001593475,1204.51606,0,1,,https://doi.org/10.1016/j.electacta.2010.10.098,O+E
(CaO)1(ZrO2)0.995(Al2O3)0.0025,0.000851692,1105.345985,0,1,,https://doi.org/10.1016/j.electacta.2010.10.098,H
(CaO)1(ZrO2)0.995(Al2O3)0.0025,0.000440671,995.8488415,0,1,,https://doi.org/10.1016/j.electacta.2010.10.098,H
(CaO)1(ZrO2)0.995(Al2O3)0.0025,0.000197017,902.4684838,0,1,,https://doi.org/10.1016/j.electacta.2010.10.098,H
(CaO)1(ZrO2)0.995(Al2O3)0.0025,7.76071E-05,802.7717493,0,1,,https://doi.org/10.1016/j.electacta.2010.10.098,H
(CaO)1(ZrO2)0.995(Al2O3)0.0025,2.95338E-05,700.7510584,0,1,,https://doi.org/10.1016/j.electacta.2010.10.098,H
(CaO)1(ZrO2)0.995(Al2O3)0.0025,9.40727E-06,601.9682983,0,1,,https://doi.org/10.1016/j.electacta.2010.10.098,H
(CaO)1(ZrO2)0.995(Al2O3)0.0025,1.58766E-06,501.4107744,0,1,,https://doi.org/10.1016/j.electacta.2010.10.098,H
(CaO)1(TiO2)1,0.002236938,1090.617452,2.00E+01,0,,https://doi.org/10.1016/0167-2738(92)90095-7,O
(CaO)1(TiO2)1,0.001692427,1059.638549,2.00E+01,0,,https://doi.org/10.1016/0167-2738(92)90095-7,O
(CaO)1(TiO2)1,0.001022963,991.3570809,2.00E+01,0,,https://doi.org/10.1016/0167-2738(92)90095-7,O
(CaO)1(TiO2)1,0.000711277,948.5398075,2.00E+01,0,,https://doi.org/10.1016/0167-2738(92)90095-7,O
(CaO)1(TiO2)1,0.000522531,905.5312124,2.00E+01,0,,https://doi.org/10.1016/0167-2738(92)90095-7,O
(CaO)1(TiO2)1,0.000282424,841.1207601,2.00E+01,0,,https://doi.org/10.1016/0167-2738(92)90095-7,O
(CaO)1(TiO2)1,0.000144177,769.269551,2.00E+01,0,,https://doi.org/10.1016/0167-2738(92)90095-7,O
(CaO)1(TiO2)1,5.26896E-05,690.0614817,2.00E+01,0,,https://doi.org/10.1016/0167-2738(92)90095-7,O
(SrO)1(TiO2)1,0.005701561,1029.447278,2.00E+01,0,,https://doi.org/10.1016/0167-2738(92)90095-7,O
(SrO)1(TiO2)1,0.005242923,1018.684211,2.00E+01,0,,https://doi.org/10.1016/0167-2738(92)90095-7,O
(SrO)1(TiO2)1,0.003356185,977.3940549,2.00E+01,0,,https://doi.org/10.1016/0167-2738(92)90095-7,O
(SrO)1(TiO2)1,0.002469962,951.3064334,2.00E+01,0,,https://doi.org/10.1016/0167-2738(92)90095-7,O
(SrO)1(TiO2)1,0.001580644,911.1427216,2.00E+01,0,,https://doi.org/10.1016/0167-2738(92)90095-7,O
(SrO)1(TiO2)1,0.000765078,848.8520927,2.00E+01,0,,https://doi.org/10.1016/0167-2738(92)90095-7,O
(SrO)1(TiO2)1,0.000517608,817.5591583,2.00E+01,0,,https://doi.org/10.1016/0167-2738(92)90095-7,O
(SrO)1(TiO2)1,0.000391961,805.060865,2.00E+01,0,,https://doi.org/10.1016/0167-2738(92)90095-7,O
(SrO)1(TiO2)1,0.000257716,769.1230372,2.00E+01,0,,https://doi.org/10.1016/0167-2738(92)90095-7,O
(SrO)1(TiO2)1,0.000135614,724.7936476,2.00E+01,0,,https://doi.org/10.1016/0167-2738(92)90095-7,O
(SrO)1(TiO2)1,6.04324E-05,682.1615659,2.00E+01,0,,https://doi.org/10.1016/0167-2738(92)90095-7,O
(SrO)1(TiO2)1,4.69626E-05,661.2178496,2.00E+01,0,,https://doi.org/10.1016/0167-2738(92)90095-7,O
(SrO)1(TiO2)1,3.17534E-05,635.8680052,2.00E+01,0,,https://doi.org/10.1016/0167-2738(92)90095-7,O
(SrO)1(TiO2)1,2.53829E-05,620.2805644,2.00E+01,0,,https://doi.org/10.1016/0167-2738(92)90095-7,O
(SrO)1(TiO2)1,1.29656E-05,576.5692331,2.00E+01,0,,https://doi.org/10.1016/0167-2738(92)90095-7,O
(BaO)1(ZrO2)1,4.59646E-05,798.2328767,0,4,,https://doi.org/10.1016/j.electacta.2012.05.002,H
(BaO)1(ZrO2)1,3.49153E-05,748.9550444,0,4,,https://doi.org/10.1016/j.electacta.2012.05.002,H
(BaO)1(ZrO2)1,2.8396E-05,698.1872827,0,4,,https://doi.org/10.1016/j.electacta.2012.05.002,H
(BaO)1(ZrO2)1,1.90252E-05,650.4766179,0,4,,https://doi.org/10.1016/j.electacta.2012.05.002,H
(BaO)1(ZrO2)1,1.07479E-05,599.3784025,0,4,,https://doi.org/10.1016/j.electacta.2012.05.002,H
(BaO)1(ZrO2)1,6.90869E-06,550.8516646,0,4,,https://doi.org/10.1016/j.electacta.2012.05.002,H
(BaO)1(ZrO2)1,4.5421E-06,500.0328193,0,4,,https://doi.org/10.1016/j.electacta.2012.05.002,H
(BaO)1(ZrO2)1,5.90894E-05,798.2328767,20,0,2,https://doi.org/10.1016/j.electacta.2012.05.002,H
(BaO)1(ZrO2)1,4.71514E-05,748.9550444,20,0,2,https://doi.org/10.1016/j.electacta.2012.05.002,H
(BaO)1(ZrO2)1,3.83818E-05,698.1872827,20,0,2,https://doi.org/10.1016/j.electacta.2012.05.002,H
(BaO)1(ZrO2)1,2.9284E-05,650.4766179,20,0,2,https://doi.org/10.1016/j.electacta.2012.05.002,H
(BaO)1(ZrO2)1,1.85504E-05,599.3784025,20,0,2,https://doi.org/10.1016/j.electacta.2012.05.002,H
(BaO)1(ZrO2)1,1.1024E-05,550.8516646,20,0,2,https://doi.org/10.1016/j.electacta.2012.05.002,H
(BaO)1(ZrO2)1,6.38531E-06,500.0328193,20,0,2,https://doi.org/10.1016/j.electacta.2012.05.002,H
(BaO)1(CeO2)1,1.67683E-06,700,20,0,,https://doi.org/10.1021/ic201008v,H
(BaO)1(CeO2)1,2.88E-07,600,20,0,,https://doi.org/10.1021/ic201008v,H
(BaO)1(CeO2)1,3.47E-08,500,20,0,,https://doi.org/10.1021/ic201008v,H
(BaO)1(CeO2)1,9.54E-09,400,20,0,,https://doi.org/10.1021/ic201008v,H
(BaO)1(CeO2)1,0.000195945,700,0,1.9,,https://doi.org/10.1021/ic201008v,H+E
(BaO)1(CeO2)1,4.14933E-05,600,0,1.9,,https://doi.org/10.1021/ic201008v,H+E
(BaO)1(CeO2)1,4.72234E-06,500,0,1.9,,https://doi.org/10.1021/ic201008v,H+E
(BaO)1(CeO2)1,1.55E-07,400,0,1.9,,https://doi.org/10.1021/ic201008v,H+E
(BaO)1(CeO2)1,0.005286102,900.4059448,20,1.9,,https://doi.org/10.1016/j.jpowsour.2008.01.036,H+E
(BaO)1(CeO2)1,0.003869835,849.7108819,20,1.9,,https://doi.org/10.1016/j.jpowsour.2008.01.036,H+E
(BaO)1(CeO2)1,0.002977522,799.6246239,20,1.9,,https://doi.org/10.1016/j.jpowsour.2008.01.036,H+E
(BaO)1(CeO2)1,0.001759031,749.9269747,20,1.9,,https://doi.org/10.1016/j.jpowsour.2008.01.036,H+E
(BaO)1(CeO2)1,0.000972944,700.4983725,20,1.9,,https://doi.org/10.1016/j.jpowsour.2008.01.036,H+E
(BaO)1(CeO2)1,0.000538333,650.3009405,20,1.9,,https://doi.org/10.1016/j.jpowsour.2008.01.036,H+E
(BaO)1(CeO2)1,0.000388159,599.7724672,20,1.9,,https://doi.org/10.1016/j.jpowsour.2008.01.036,H+E
(BaO)1(CeO2)1,3.06685E-05,600,0,1.9,,https://doi.org/10.1016/j.jpowsour.2008.01.036,O+H
(BaO)1(CeO2)1,7.1074E-05,650,0,1.9,,https://doi.org/10.1016/j.jpowsour.2008.01.036,O+H
(BaO)1(CeO2)1,0.000159045,700,0,1.9,,https://doi.org/10.1016/j.jpowsour.2008.01.036,O+H
(BaO)1(CeO2)1,0.000331828,750,0,1.9,,https://doi.org/10.1016/j.jpowsour.2008.01.036,O+H
(BaO)1(CeO2)1,0.000487768,800,0,1.9,,https://doi.org/10.1016/j.jpowsour.2008.01.036,O+H
(BaO)1(CeO2)1,0.001300374,850,0,1.9,,https://doi.org/10.1016/j.jpowsour.2008.01.036,O+H
(BaO)1(CeO2)1,0.002529542,900,0,1.9,,https://doi.org/10.1016/j.jpowsour.2008.01.036,O+H
(BaO)1(CeO2)1,0.00311699,1000.000069,0,0,,https://doi.org/10.1149/1.2221624,O+H
(BaO)1(CeO2)1,0.002166138,946.7241811,0,0,,https://doi.org/10.1149/1.2221624,O+H
(BaO)1(CeO2)1,0.001710765,897.8580467,0,0,,https://doi.org/10.1149/1.2221624,O+H
(BaO)1(CeO2)1,0.001256178,846.2546114,0,0,,https://doi.org/10.1149/1.2221624,O+H
(BaO)1(CeO2)1,0.000992408,797.1172355,0,0,,https://doi.org/10.1149/1.2221624,O+H
(BaO)1(CeO2)1,0.000924394,746.9013543,0,0,,https://doi.org/10.1149/1.2221624,O+H
(BaO)1(CeO2)1,0.000785978,697.9033917,0,0,,https://doi.org/10.1149/1.2221624,O+H
(BaO)1(CeO2)1,0.000644505,647.5683019,0,0,,https://doi.org/10.1149/1.2221624,O+H
(BaO)1(CeO2)1,0.000538369,598.3115429,0,0,,https://doi.org/10.1149/1.2221624,O+H
(La2O3)0.5(CoO)1,875.6039101,986.8314607,20,0,,https://doi.org/10.1016/0167-2738(87)90039-7,O+E
(La2O3)0.5(CoO)1,766.6822075,862.1736139,20,0,,https://doi.org/10.1016/0167-2738(87)90039-7,O+E
(La2O3)0.5(CoO)1,701.7038287,775.7394958,20,0,,https://doi.org/10.1016/0167-2738(87)90039-7,O+E
(La2O3)0.5(CoO)1,614.4146161,715.4297521,20,0,,https://doi.org/10.1016/0167-2738(87)90039-7,O+E
(La2O3)0.5(CoO)1,471.0607542,613.4731316,20,0,,https://doi.org/10.1016/0167-2738(87)90039-7,O+E
(La2O3)0.5(CoO)1,316.227766,494.6918962,20,0,,https://doi.org/10.1016/0167-2738(87)90039-7,O+E
(La2O3)0.5(CoO)1,148.96249,390.7069922,20,0,,https://doi.org/10.1016/0167-2738(87)90039-7,O+E
(La2O3)0.5(CoO)1,39.45970609,296.7499008,20,0,,https://doi.org/10.1016/0167-2738(87)90039-7,O+E
(La2O3)0.5(CoO)1,0.956685586,176.4832446,20,0,,https://doi.org/10.1016/0167-2738(87)90039-7,O+E
(BaO)1(Fe2O3)0.5,1.132238711,310.5174068,2.00E+01,0,,https://doi.org/10.1039/C2JM31711G,O+E
(BaO)1(Fe2O3)0.5,1.332618631,339.1694408,2.00E+01,0,,https://doi.org/10.1039/C2JM31711G,O+E
(BaO)1(Fe2O3)0.5,1.613835129,369.1305084,2.00E+01,0,,https://doi.org/10.1039/C2JM31711G,O+E
(BaO)1(Fe2O3)0.5,1.854852765,395.1832835,2.00E+01,0,,https://doi.org/10.1039/C2JM31711G,O+E
(BaO)1(Fe2O3)0.5,2.136069263,425.144351,2.00E+01,0,,https://doi.org/10.1039/C2JM31711G,O+E
(BaO)1(Fe2O3)0.5,2.296162551,451.189603,2.00E+01,0,,https://doi.org/10.1039/C2JM31711G,O+E
(BaO)1(Fe2O3)0.5,2.415354812,483.7386447,2.00E+01,0,,https://doi.org/10.1039/C2JM31711G,O+E
(BaO)1(Fe2O3)0.5,2.454061577,509.7726119,2.00E+01,0,,https://doi.org/10.1039/C2JM31711G,O+E
(BaO)1(Fe2O3)0.5,2.573341609,541.0201433,2.00E+01,0,,https://doi.org/10.1039/C2JM31711G,O+E
(BaO)1(Fe2O3)0.5,2.733171585,570.9699261,2.00E+01,0,,https://doi.org/10.1039/C2JM31711G,O+E
(BaO)1(Fe2O3)0.5,2.89282602,603.5227294,2.00E+01,0,,https://doi.org/10.1039/C2JM31711G,O+E
(BaO)1(Fe2O3)0.5,3.012193822,633.4687506,2.00E+01,0,,https://doi.org/10.1039/C2JM31711G,O+E
(BaO)1(Fe2O3)0.5,3.131737165,660.8117512,2.00E+01,0,,https://doi.org/10.1039/C2JM31711G,O+E
(BaO)1(Fe2O3)0.5,3.210467252,693.3570314,2.00E+01,0,,https://doi.org/10.1039/C2JM31711G,O+E
(BaO)1(Fe2O3)0.5,3.329922825,722.0015423,2.00E+01,0,,https://doi.org/10.1039/C2JM31711G,O+E
(BaO)1(Fe2O3)0.5,3.853824597,753.2866896,2.00E+01,0,,https://doi.org/10.1039/C2JM31711G,O+E
(BaO)1(Fe2O3)0.5,4.74276364,771.5905885,2.00E+01,0,,https://doi.org/10.1039/C2JM31711G,O+E
(BaO)1(Fe2O3)0.5,5.430181748,778.1620869,2.00E+01,0,,https://doi.org/10.1039/C2JM31711G,O+E
(BaO)1(Fe2O3)0.5,5.671287154,802.9133518,2.00E+01,0,,https://doi.org/10.1039/C2JM31711G,O+E
(BaO)1(Fe2O3)0.5,5.30572326,823.7036619,2.00E+01,0,,https://doi.org/10.1039/C2JM31711G,O+E
(BaO)1(Fe2O3)0.5,4.980007147,853.6083056,2.00E+01,0,,https://doi.org/10.1039/C2JM31711G,O+E
(BaO)1(Fe2O3)0.5,4.654115493,886.1159698,2.00E+01,0,,https://doi.org/10.1039/C2JM31711G,O+E
(SrO)1(V2O3)0.5,273.463898,1060.560928,21,0,,https://doi.org/10.1016/j.ssi.2013.06.002,E
(SrO)1(V2O3)0.5,322.0030609,1014.397282,21,0,,https://doi.org/10.1016/j.ssi.2013.06.002,E
(SrO)1(V2O3)0.5,378.1899642,965.1861563,21,0,,https://doi.org/10.1016/j.ssi.2013.06.002,E
(SrO)1(V2O3)0.5,452.199419,917.2409762,21,0,,https://doi.org/10.1016/j.ssi.2013.06.002,E
(SrO)1(V2O3)0.5,539.2994781,870.2621843,21,0,,https://doi.org/10.1016/j.ssi.2013.06.002,E
(SrO)1(V2O3)0.5,653.1155139,824.4466806,21,0,,https://doi.org/10.1016/j.ssi.2013.06.002,E
(SrO)1(V2O3)0.5,790.9517659,778.11134,21,0,,https://doi.org/10.1016/j.ssi.2013.06.002,E
(SrO)1(V2O3)0.5,1002.928563,729.4891806,21,0,,https://doi.org/10.1016/j.ssi.2013.06.002,E
(SrO)1(V2O3)0.5,1180.945893,683.34203,21,0,,https://doi.org/10.1016/j.ssi.2013.06.002,E
(SrO)1(V2O3)0.5,1452.245368,634.9180441,21,0,,https://doi.org/10.1016/j.ssi.2013.06.002,E
(SrO)1(V2O3)0.5,1808.797712,588.4429341,21,0,,https://doi.org/10.1016/j.ssi.2013.06.002,E
(SrO)1(V2O3)0.5,2196.139888,537.4548678,21,0,,https://doi.org/10.1016/j.ssi.2013.06.002,E
(SrO)1(V2O3)0.5,2540.153725,488.8757381,21,0,,https://doi.org/10.1016/j.ssi.2013.06.002,E
(SrO)1(V2O3)0.5,3084.110998,438.9951243,21,0,,https://doi.org/10.1016/j.ssi.2013.06.002,E
(SrO)1(V2O3)0.5,432.1156545,900,4.61137E-19,0,,https://doi.org/10.1016/j.ssi.2013.06.002,E
(SrO)1(V2O3)0.5,445.9436662,900,1.37161E-18,0,,https://doi.org/10.1016/j.ssi.2013.06.002,E
(SrO)1(V2O3)0.5,455.9634174,900,1.91509E-18,0,,https://doi.org/10.1016/j.ssi.2013.06.002,E
(SrO)1(V2O3)0.5,475.8060939,900,7.47085E-18,0,,https://doi.org/10.1016/j.ssi.2013.06.002,E
(SrO)1(V2O3)0.5,523.9260591,900,1.32251E-16,0,,https://doi.org/10.1016/j.ssi.2013.06.002,E
(SrO)1(V2O3)0.5,535.6979692,900,7.66867E-16,0,,https://doi.org/10.1016/j.ssi.2013.06.002,E
(SrO)1(V2O3)0.5,540.6796201,900,2.82475E-15,0,,https://doi.org/10.1016/j.ssi.2013.06.002,E
(SrO)1(V2O3)0.5,763.5720096,700,4.71227E-24,0,,https://doi.org/10.1016/j.ssi.2013.06.002,E
(SrO)1(V2O3)0.5,805.8421878,700,2.31356E-23,0,,https://doi.org/10.1016/j.ssi.2013.06.002,E
(SrO)1(V2O3)0.5,824.024264,700,1.19939E-22,0,,https://doi.org/10.1016/j.ssi.2013.06.002,E
(SrO)1(V2O3)0.5,877.7685172,700,4.15489E-21,0,,https://doi.org/10.1016/j.ssi.2013.06.002,E
(SrO)1(V2O3)0.5,905.9411775,700,3.62786E-20,0,,https://doi.org/10.1016/j.ssi.2013.06.002,E
(SrO)1(V2O3)0.5,887.6259695,700,1.52676E-19,0,,https://doi.org/10.1016/j.ssi.2013.06.002,E
(SrO)1(V2O3)0.5,841.0464848,700,5.60803E-19,0,,https://doi.org/10.1016/j.ssi.2013.06.002,E
(SrO)1(V2O3)0.5,3.20E+03,25,21,0,,https://doi.org/10.1016/S0167-2738(01)00870-0,E
(SrO)1(V2O3)0.5,1.00E+03,800,0,0,,https://doi.org/10.1016/S0167-2738(01)00870-0,E
(La2O3)0.5(Al2O3)0.5,4.56005E-05,1190.611258,2.00E+01,0,,https://doi.org/10.1016/0167-2738(92)90095-7,O
(La2O3)0.5(Al2O3)0.5,3.26246E-05,1146.33734,2.00E+01,0,,https://doi.org/10.1016/0167-2738(92)90095-7,O
(La2O3)0.5(Al2O3)0.5,1.97662E-05,1100.688309,2.00E+01,0,,https://doi.org/10.1016/0167-2738(92)90095-7,O
(La2O3)0.5(Al2O3)0.5,1.2297E-05,1042.889012,2.00E+01,0,,https://doi.org/10.1016/0167-2738(92)90095-7,O
(Nd2O3)0.5(Al2O3)0.5,5.18823E-05,942.7862688,1.00E-03,0,,10.1149/1.2059351,O
(Nd2O3)0.5(Al2O3)0.5,4.20839E-05,895.5280921,1.00E-03,0,,10.1149/1.2059351,O
(Nd2O3)0.5(Al2O3)0.5,3.0815E-05,846.1269133,1.00E-03,0,,10.1149/1.2059351,O
(Nd2O3)0.5(Al2O3)0.5,2.25441E-05,795.5186259,1.00E-03,0,,10.1149/1.2059351,O
(Nd2O3)0.5(Al2O3)0.5,9.43289E-06,746.3233016,1.00E-03,0,,10.1149/1.2059351,O
(Nd2O3)0.5(Al2O3)0.5,6.07011E-06,697.0280974,1.00E-03,0,,10.1149/1.2059351,O
(Nd2O3)0.5(Al2O3)0.5,4.0019E-06,647.114287,1.00E-03,0,,10.1149/1.2059351,O
(Nd2O3)0.5(Al2O3)0.5,1.41858E-05,950,5.87E-21,0,,10.1149/1.2059351,O
(Nd2O3)0.5(Al2O3)0.5,1.2621E-05,950,1.73E-18,0,,10.1149/1.2059351,O
(Nd2O3)0.5(Al2O3)0.5,1.04793E-05,950,6.44E-11,0,,10.1149/1.2059351,O
(Nd2O3)0.5(Al2O3)0.5,5.21581E-05,950,4.59E-04,0,,10.1149/1.2059351,O
(Nd2O3)0.5(Al2O3)0.5,0.000762863,950,6.93E+01,0,,10.1149/1.2059351,O
(Nd2O3)0.5(Al2O3)0.5,5.40359E-05,950,1.00E-03,0,,10.1149/1.2059351,O