Composition,Conductivity (S/cm),Temperature (degC),PO2 (%),PH2O (%),Grainsize,Ref,Carrier Type
(BaO)0.95(CaO)0.05(Fe2O3)0.475(In2O3)0.025,2.244094488,295.9183673,20,0,,https://doi.org/10.1016/j.jpowsour.2016.05.089,O+E
(BaO)0.95(CaO)0.05(Fe2O3)0.475(In2O3)0.025,2.440944882,306.122449,20,0,,https://doi.org/10.1016/j.jpowsour.2016.05.089,O+E
(BaO)0.95(CaO)0.05(Fe2O3)0.475(In2O3)0.025,2.559055118,318.3673469,20,0,,https://doi.org/10.1016/j.jpowsour.2016.05.089,O+E
(BaO)0.95(CaO)0.05(Fe2O3)0.475(In2O3)0.025,2.834645669,330.6122449,20,0,,https://doi.org/10.1016/j.jpowsour.2016.05.089,O+E
(BaO)0.95(CaO)0.05(Fe2O3)0.475(In2O3)0.025,3.031496063,338.7755102,20,0,,https://doi.org/10.1016/j.jpowsour.2016.05.089,O+E
(BaO)0.95(CaO)0.05(Fe2O3)0.475(In2O3)0.025,3.307086614,351.0204082,20,0,,https://doi.org/10.1016/j.jpowsour.2016.05.089,O+E
(BaO)0.95(CaO)0.05(Fe2O3)0.475(In2O3)0.025,3.503937008,357.1428571,20,0,,https://doi.org/10.1016/j.jpowsour.2016.05.089,O+E
(BaO)0.95(CaO)0.05(Fe2O3)0.475(In2O3)0.025,3.858267717,365.3061224,20,0,,https://doi.org/10.1016/j.jpowsour.2016.05.089,O+E
(BaO)0.95(CaO)0.05(Fe2O3)0.475(In2O3)0.025,4.173228346,379.5918367,20,0,,https://doi.org/10.1016/j.jpowsour.2016.05.089,O+E
(BaO)0.95(CaO)0.05(Fe2O3)0.475(In2O3)0.025,4.488188976,387.755102,20,0,,https://doi.org/10.1016/j.jpowsour.2016.05.089,O+E
(BaO)0.95(CaO)0.05(Fe2O3)0.475(In2O3)0.025,4.921259843,397.9591837,20,0,,https://doi.org/10.1016/j.jpowsour.2016.05.089,O+E
(BaO)0.95(CaO)0.05(Fe2O3)0.475(In2O3)0.025,5.275590551,406.122449,20,0,,https://doi.org/10.1016/j.jpowsour.2016.05.089,O+E
(BaO)0.95(CaO)0.05(Fe2O3)0.475(In2O3)0.025,5.511811024,420.4081633,20,0,,https://doi.org/10.1016/j.jpowsour.2016.05.089,O+E
(BaO)0.95(CaO)0.05(Fe2O3)0.475(In2O3)0.025,5.94488189,430.6122449,20,0,,https://doi.org/10.1016/j.jpowsour.2016.05.089,O+E
(BaO)0.95(CaO)0.05(Fe2O3)0.475(In2O3)0.025,6.25984252,438.7755102,20,0,,https://doi.org/10.1016/j.jpowsour.2016.05.089,O+E
(BaO)0.95(CaO)0.05(Fe2O3)0.475(In2O3)0.025,6.692913386,451.0204082,20,0,,https://doi.org/10.1016/j.jpowsour.2016.05.089,O+E
(BaO)0.95(CaO)0.05(Fe2O3)0.475(In2O3)0.025,6.88976378,461.2244898,20,0,,https://doi.org/10.1016/j.jpowsour.2016.05.089,O+E
(BaO)0.95(CaO)0.05(Fe2O3)0.475(In2O3)0.025,7.204724409,469.3877551,20,0,,https://doi.org/10.1016/j.jpowsour.2016.05.089,O+E
(BaO)0.95(CaO)0.05(Fe2O3)0.475(In2O3)0.025,7.637795276,481.6326531,20,0,,https://doi.org/10.1016/j.jpowsour.2016.05.089,O+E
(BaO)0.95(CaO)0.05(Fe2O3)0.475(In2O3)0.025,8.031496063,491.8367347,20,0,,https://doi.org/10.1016/j.jpowsour.2016.05.089,O+E
(BaO)0.95(CaO)0.05(Fe2O3)0.475(In2O3)0.025,8.307086614,500,20,0,,https://doi.org/10.1016/j.jpowsour.2016.05.089,O+E
(BaO)0.95(CaO)0.05(Fe2O3)0.475(In2O3)0.025,8.582677165,510.2040816,20,0,,https://doi.org/10.1016/j.jpowsour.2016.05.089,O+E
(BaO)0.95(CaO)0.05(Fe2O3)0.475(In2O3)0.025,8.858267717,518.3673469,20,0,,https://doi.org/10.1016/j.jpowsour.2016.05.089,O+E
(BaO)0.95(CaO)0.05(Fe2O3)0.475(In2O3)0.025,9.173228346,530.6122449,20,0,,https://doi.org/10.1016/j.jpowsour.2016.05.089,O+E
(BaO)0.95(CaO)0.05(Fe2O3)0.475(In2O3)0.025,9.291338583,538.7755102,20,0,,https://doi.org/10.1016/j.jpowsour.2016.05.089,E
(BaO)0.95(CaO)0.05(Fe2O3)0.475(In2O3)0.025,9.212598425,546.9387755,20,0,,https://doi.org/10.1016/j.jpowsour.2016.05.089,E
(BaO)0.95(CaO)0.05(Fe2O3)0.475(In2O3)0.025,8.897637795,557.1428571,20,0,,https://doi.org/10.1016/j.jpowsour.2016.05.089,E
(BaO)0.95(CaO)0.05(Fe2O3)0.475(In2O3)0.025,8.74015748,567.3469388,20,0,,https://doi.org/10.1016/j.jpowsour.2016.05.089,E
(BaO)0.95(CaO)0.05(Fe2O3)0.475(In2O3)0.025,8.346456693,577.5510204,20,0,,https://doi.org/10.1016/j.jpowsour.2016.05.089,E
(BaO)0.95(CaO)0.05(Fe2O3)0.475(In2O3)0.025,8.149606299,589.7959184,20,0,,https://doi.org/10.1016/j.jpowsour.2016.05.089,E
(BaO)0.95(CaO)0.05(Fe2O3)0.475(In2O3)0.025,7.913385827,600,20,0,,https://doi.org/10.1016/j.jpowsour.2016.05.089,E
(BaO)0.95(CaO)0.05(Fe2O3)0.475(In2O3)0.025,7.716535433,610.2040816,20,0,,https://doi.org/10.1016/j.jpowsour.2016.05.089,E
(BaO)0.95(CaO)0.05(Fe2O3)0.475(In2O3)0.025,7.559055118,620.4081633,20,0,,https://doi.org/10.1016/j.jpowsour.2016.05.089,E
(BaO)0.95(CaO)0.05(Fe2O3)0.475(In2O3)0.025,7.283464567,632.6530612,20,0,,https://doi.org/10.1016/j.jpowsour.2016.05.089,E
(BaO)0.95(CaO)0.05(Fe2O3)0.475(In2O3)0.025,7.125984252,636.7346939,20,0,,https://doi.org/10.1016/j.jpowsour.2016.05.089,E
(BaO)0.95(CaO)0.05(Fe2O3)0.475(In2O3)0.025,6.850393701,648.9795918,20,0,,https://doi.org/10.1016/j.jpowsour.2016.05.089,E
(BaO)0.95(CaO)0.05(Fe2O3)0.475(In2O3)0.025,6.968503937,661.2244898,20,0,,https://doi.org/10.1016/j.jpowsour.2016.05.089,E
(BaO)0.95(CaO)0.05(Fe2O3)0.475(In2O3)0.025,6.811023622,669.3877551,20,0,,https://doi.org/10.1016/j.jpowsour.2016.05.089,E
(BaO)0.95(CaO)0.05(Fe2O3)0.475(In2O3)0.025,6.496062992,677.5510204,20,0,,https://doi.org/10.1016/j.jpowsour.2016.05.089,E
(BaO)0.95(CaO)0.05(Fe2O3)0.475(In2O3)0.025,6.338582677,687.755102,20,0,,https://doi.org/10.1016/j.jpowsour.2016.05.089,E
(BaO)0.95(CaO)0.05(Fe2O3)0.475(In2O3)0.025,6.141732283,700,20,0,,https://doi.org/10.1016/j.jpowsour.2016.05.089,E
(BaO)0.95(CaO)0.05(Fe2O3)0.475(In2O3)0.025,6.023622047,706.122449,20,0,,https://doi.org/10.1016/j.jpowsour.2016.05.089,E
(BaO)0.95(CaO)0.05(Fe2O3)0.475(In2O3)0.025,5.866141732,718.3673469,20,0,,https://doi.org/10.1016/j.jpowsour.2016.05.089,E
(BaO)0.95(CaO)0.05(Fe2O3)0.475(In2O3)0.025,5.708661417,728.5714286,20,0,,https://doi.org/10.1016/j.jpowsour.2016.05.089,E
(BaO)0.95(CaO)0.05(Fe2O3)0.475(In2O3)0.025,5.472440945,738.7755102,20,0,,https://doi.org/10.1016/j.jpowsour.2016.05.089,E
(BaO)0.95(CaO)0.05(Fe2O3)0.475(In2O3)0.025,5.393700787,751.0204082,20,0,,https://doi.org/10.1016/j.jpowsour.2016.05.089,E
(BaO)0.95(CaO)0.05(Fe2O3)0.475(In2O3)0.025,5.236220472,761.2244898,20,0,,https://doi.org/10.1016/j.jpowsour.2016.05.089,E
(BaO)0.95(CaO)0.05(Fe2O3)0.475(In2O3)0.025,5.078740157,769.3877551,20,0,,https://doi.org/10.1016/j.jpowsour.2016.05.089,E
(BaO)0.95(CaO)0.05(Fe2O3)0.475(In2O3)0.025,4.921259843,777.5510204,20,0,,https://doi.org/10.1016/j.jpowsour.2016.05.089,E
(BaO)0.95(CaO)0.05(Fe2O3)0.475(In2O3)0.025,4.803149606,789.7959184,20,0,,https://doi.org/10.1016/j.jpowsour.2016.05.089,E
(BaO)0.95(CaO)0.05(Fe2O3)0.475(In2O3)0.025,4.527559055,800,20,0,,https://doi.org/10.1016/j.jpowsour.2016.05.089,E
(BaO)0.95(CaO)0.05(Fe2O3)0.475(In2O3)0.025,4.409448819,810.2040816,20,0,,https://doi.org/10.1016/j.jpowsour.2016.05.089,E
(BaO)0.95(CaO)0.05(Fe2O3)0.475(In2O3)0.025,4.37007874,820.4081633,20,0,,https://doi.org/10.1016/j.jpowsour.2016.05.089,E
(BaO)0.95(CaO)0.05(Fe2O3)0.475(In2O3)0.025,4.291338583,834.6938776,20,0,,https://doi.org/10.1016/j.jpowsour.2016.05.089,E
(BaO)0.95(CaO)0.05(Fe2O3)0.475(In2O3)0.025,4.173228346,853.0612245,20,0,,https://doi.org/10.1016/j.jpowsour.2016.05.089,E
(BaO)0.95(CaO)0.05(Fe2O3)0.475(In2O3)0.025,4.133858268,867.3469388,20,0,,https://doi.org/10.1016/j.jpowsour.2016.05.089,E
(BaO)0.95(CaO)0.05(Fe2O3)0.475(In2O3)0.025,4.05511811,883.6734694,20,0,,https://doi.org/10.1016/j.jpowsour.2016.05.089,E
(BaO)0.95(CaO)0.05(Fe2O3)0.475(In2O3)0.025,4.015748031,895.9183673,20,0,,https://doi.org/10.1016/j.jpowsour.2016.05.089,E
(BaO)1(CeO2)0.8(Y2O3)0.075(Nd2O3)0.025,0.09544917,802.168626,20,3,1.5,https://doi.org/10.1016/j.ssi.2006.02.047,H
(BaO)1(CeO2)0.8(Y2O3)0.075(Nd2O3)0.025,0.083206214,752.7132028,20,3,1.5,https://doi.org/10.1016/j.ssi.2006.02.047,H
(BaO)1(CeO2)0.8(Y2O3)0.075(Nd2O3)0.025,0.075315468,700.6705787,20,3,1.5,https://doi.org/10.1016/j.ssi.2006.02.047,H
(BaO)1(CeO2)0.8(Y2O3)0.075(Nd2O3)0.025,0.0648577,650.5359376,20,3,1.5,https://doi.org/10.1016/j.ssi.2006.02.047,H
(BaO)1(CeO2)0.8(Y2O3)0.075(Nd2O3)0.025,0.053940421,600.6618504,20,3,1.5,https://doi.org/10.1016/j.ssi.2006.02.047,H
(BaO)1(CeO2)0.8(Y2O3)0.075(Nd2O3)0.025,0.043303354,550.9219,20,3,1.5,https://doi.org/10.1016/j.ssi.2006.02.047,H
(BaO)1(CeO2)0.8(Y2O3)0.075(Nd2O3)0.025,0.032393936,500.6799807,20,3,1.5,https://doi.org/10.1016/j.ssi.2006.02.047,H
(BaO)1(CeO2)0.8(Y2O3)0.075(Nd2O3)0.025,0.023080003,449.8257371,20,3,1.5,https://doi.org/10.1016/j.ssi.2006.02.047,H
(BaO)1(CeO2)0.8(Y2O3)0.075(Nd2O3)0.025,0.015011034,400.2549706,20,3,1.5,https://doi.org/10.1016/j.ssi.2006.02.047,H
(BaO)1(ZrO2)0.9(Y2O3)0.025(Ga2O3)0.025,0.000397448,909.602337,0,1.9,,https://doi.org/10.1016/j.ssi.2008.02.047,H
(BaO)1(ZrO2)0.9(Y2O3)0.025(Ga2O3)0.025,0.000323829,857.1662911,0,1.9,,https://doi.org/10.1016/j.ssi.2008.02.047,H
(BaO)1(ZrO2)0.9(Y2O3)0.025(Ga2O3)0.025,0.000257485,809.1901907,0,1.9,,https://doi.org/10.1016/j.ssi.2008.02.047,H
(BaO)1(ZrO2)0.9(Y2O3)0.025(Ga2O3)0.025,0.000190029,759.4005315,0,1.9,,https://doi.org/10.1016/j.ssi.2008.02.047,H
(BaO)1(ZrO2)0.9(Y2O3)0.025(Ga2O3)0.025,0.000143459,707.0756901,0,1.9,,https://doi.org/10.1016/j.ssi.2008.02.047,H
(BaO)1(ZrO2)0.9(Y2O3)0.025(Ga2O3)0.025,9.81433E-05,656.7237051,0,1.9,,https://doi.org/10.1016/j.ssi.2008.02.047,H
(BaO)1(ZrO2)0.9(Y2O3)0.025(Ga2O3)0.025,6.70832E-05,608.5088379,0,1.9,,https://doi.org/10.1016/j.ssi.2008.02.047,H
(BaO)1(ZrO2)0.9(Y2O3)0.025(Ga2O3)0.025,5.04013E-05,556.3433384,0,1.9,,https://doi.org/10.1016/j.ssi.2008.02.047,H
(BaO)1(ZrO2)0.9(Y2O3)0.025(Ga2O3)0.025,2.8241E-05,508.9600065,0,1.9,,https://doi.org/10.1016/j.ssi.2008.02.047,H
(BaO)1(ZrO2)0.9(Y2O3)0.025(In2O3)0.025,0.002789014,859.4991979,0,1.9,,https://doi.org/10.1016/j.ssi.2008.02.047,H
(BaO)1(ZrO2)0.9(Y2O3)0.025(In2O3)0.025,0.002543858,807.5019896,0,1.9,,https://doi.org/10.1016/j.ssi.2008.02.047,H
(BaO)1(ZrO2)0.9(Y2O3)0.025(In2O3)0.025,0.002320406,758.2591294,0,1.9,,https://doi.org/10.1016/j.ssi.2008.02.047,H
(BaO)1(ZrO2)0.9(Y2O3)0.025(In2O3)0.025,0.002020011,710.0130883,0,1.9,,https://doi.org/10.1016/j.ssi.2008.02.047,H
(BaO)1(ZrO2)0.9(Y2O3)0.025(In2O3)0.025,0.001843429,658.6442333,0,1.9,,https://doi.org/10.1016/j.ssi.2008.02.047,H
(BaO)1(ZrO2)0.9(Y2O3)0.025(In2O3)0.025,0.001395085,609.7206802,0,1.9,,https://doi.org/10.1016/j.ssi.2008.02.047,H
(BaO)1(ZrO2)0.9(Y2O3)0.025(In2O3)0.025,0.000984489,559.7435716,0,1.9,,https://doi.org/10.1016/j.ssi.2008.02.047,H
(BaO)1(ZrO2)0.9(Y2O3)0.025(In2O3)0.025,0.000576133,513.0164774,0,1.9,,https://doi.org/10.1016/j.ssi.2008.02.047,H
(BaO)1(ZrO2)0.9(Y2O3)0.0375(Ga2O3)0.0125,0.000495086,909.5229245,0,1.9,,https://doi.org/10.1016/j.ssi.2008.02.047,H
(BaO)1(ZrO2)0.9(Y2O3)0.0375(Ga2O3)0.0125,0.000393656,857.1018225,0,1.9,,https://doi.org/10.1016/j.ssi.2008.02.047,H
(BaO)1(ZrO2)0.9(Y2O3)0.0375(Ga2O3)0.0125,0.000320599,807.0367985,0,1.9,,https://doi.org/10.1016/j.ssi.2008.02.047,H
(BaO)1(ZrO2)0.9(Y2O3)0.0375(Ga2O3)0.0125,0.000260987,759.3131135,0,1.9,,https://doi.org/10.1016/j.ssi.2008.02.047,H
(BaO)1(ZrO2)0.9(Y2O3)0.0375(Ga2O3)0.0125,0.000211997,706.9787297,0,1.9,,https://doi.org/10.1016/j.ssi.2008.02.047,H
(BaO)1(ZrO2)0.9(Y2O3)0.0375(Ga2O3)0.0125,0.000180739,658.1329401,0,1.9,,https://doi.org/10.1016/j.ssi.2008.02.047,H
(La2O3)0.05(SrO)0.9(TiO2)1,3.72759372,1000,8.70E-20,0,,https://doi.org/10.1016/S0167-2738(02)00140-6,E
(La2O3)0.05(SrO)0.9(TiO2)1,3.268027589,1000,1.12E-16,0,,https://doi.org/10.1016/S0167-2738(02)00140-6,E
(La2O3)0.05(SrO)0.9(TiO2)1,2.511886432,1000,1.22E-14,0,,https://doi.org/10.1016/S0167-2738(02)00140-6,E
(La2O3)0.05(SrO)0.9(TiO2)1,2.20220195,1000,1.33E-12,0,,https://doi.org/10.1016/S0167-2738(02)00140-6,E
(La2O3)0.05(SrO)0.9(TiO2)1,2.06198601,1000,1.45E-10,0,,https://doi.org/10.1016/S0167-2738(02)00140-6,E
(La2O3)0.05(SrO)0.9(TiO2)1,1.692666615,1000,1.23E-08,0,,https://doi.org/10.1016/S0167-2738(02)00140-6,E
(La2O3)0.05(SrO)0.9(TiO2)1,1.483981789,1000,1.34E-06,0,,https://doi.org/10.1016/S0167-2738(02)00140-6,E
(La2O3)0.05(SrO)0.9(TiO2)1,1.389495494,1000,1.06E-03,0,,https://doi.org/10.1016/S0167-2738(02)00140-6,E
(La2O3)0.05(SrO)0.9(TiO2)1,1.068000433,1000,2.06E+01,0,,https://doi.org/10.1016/S0167-2738(02)00140-6,E
(La2O3)0.05(SrO)0.9(TiO2)1,91.82542836,1000.255814,1.00E-16,0,,https://doi.org/10.1016/S0167-2738(02)00140-6,E
(La2O3)0.05(SrO)0.9(TiO2)1,118.5971012,824.7443609,1.00E-16,0,,https://doi.org/10.1016/S0167-2738(02)00140-6,E
(La2O3)0.05(SrO)0.9(TiO2)1,153.1740464,713.4864865,1.00E-16,0,,https://doi.org/10.1016/S0167-2738(02)00140-6,E
(La2O3)0.05(SrO)0.9(TiO2)1,181.6599788,613.6396761,1.00E-16,0,,https://doi.org/10.1016/S0167-2738(02)00140-6,E
(La2O3)0.05(SrO)0.9(TiO2)1,215.443469,524.8142077,1.00E-16,0,,https://doi.org/10.1016/S0167-2738(02)00140-6,E
(La2O3)0.05(SrO)0.9(TiO2)1,278.2559402,440.3550489,1.00E-16,0,,https://doi.org/10.1016/S0167-2738(02)00140-6,E
(La2O3)0.05(SrO)0.9(TiO2)1,344.3792985,391.6433991,1.00E-16,0,,https://doi.org/10.1016/S0167-2738(02)00140-6,E
(La2O3)0.05(SrO)0.9(TiO2)1,375.0369638,344.7715092,1.00E-16,0,,https://doi.org/10.1016/S0167-2738(02)00140-6,E
(La2O3)0.05(SrO)0.9(TiO2)1,426.2158829,304.0750988,1.00E-16,0,,https://doi.org/10.1016/S0167-2738(02)00140-6,E
(La2O3)0.05(SrO)0.9(TiO2)1,444.7829676,258.5533981,1.00E-16,0,,https://doi.org/10.1016/S0167-2738(02)00140-6,E
(La2O3)0.05(SrO)0.9(TiO2)1,464.1588834,214.2080089,1.00E-16,0,,https://doi.org/10.1016/S0167-2738(02)00140-6,E
(La2O3)0.05(SrO)0.9(TiO2)1,505.4796821,183.725756,1.00E-16,0,,https://doi.org/10.1016/S0167-2738(02)00140-6,E
(La2O3)0.05(SrO)0.9(TiO2)1,484.378865,158.9526627,1.00E-16,0,,https://doi.org/10.1016/S0167-2738(02)00140-6,E
(La2O3)0.05(SrO)0.9(TiO2)1,505.4796821,142.5597723,1.00E-16,0,,https://doi.org/10.1016/S0167-2738(02)00140-6,E
(La2O3)0.05(SrO)0.9(TiO2)1,464.1588834,121.9504058,1.00E-16,0,,https://doi.org/10.1016/S0167-2738(02)00140-6,E
(La2O3)0.05(SrO)0.9(TiO2)1,484.378865,106.5493934,1.00E-16,0,,https://doi.org/10.1016/S0167-2738(02)00140-6,E
(La2O3)0.1(SrO)0.8(TiO2)1,3.72759372,1000,8.70E-20,0,,https://doi.org/10.1016/S0167-2738(02)00140-6,E
(La2O3)0.1(SrO)0.8(TiO2)1,3.268027589,1000,1.12E-16,0,,https://doi.org/10.1016/S0167-2738(02)00140-6,E
(La2O3)0.1(SrO)0.8(TiO2)1,2.511886432,1000,1.22E-14,0,,https://doi.org/10.1016/S0167-2738(02)00140-6,E
(La2O3)0.1(SrO)0.8(TiO2)1,2.20220195,1000,1.33E-12,0,,https://doi.org/10.1016/S0167-2738(02)00140-6,E
(La2O3)0.1(SrO)0.8(TiO2)1,2.06198601,1000,1.45E-10,0,,https://doi.org/10.1016/S0167-2738(02)00140-6,E
(La2O3)0.1(SrO)0.8(TiO2)1,1.692666615,1000,1.23E-08,0,,https://doi.org/10.1016/S0167-2738(02)00140-6,E
(La2O3)0.1(SrO)0.8(TiO2)1,1.483981789,1000,1.34E-06,0,,https://doi.org/10.1016/S0167-2738(02)00140-6,E
(La2O3)0.1(SrO)0.8(TiO2)1,1.389495494,1000,1.06E-03,0,,https://doi.org/10.1016/S0167-2738(02)00140-6,E
(La2O3)0.1(SrO)0.8(TiO2)1,1.068000433,1000,2.06E+01,0,,https://doi.org/10.1016/S0167-2738(02)00140-6,E
(La2O3)0.1(SrO)0.8(TiO2)1,215.443469,982.0143266,1.00E-16,0,,https://doi.org/10.1016/S0167-2738(02)00140-6,E
(La2O3)0.1(SrO)0.8(TiO2)1,303.0271083,760.0188679,1.00E-16,0,,https://doi.org/10.1016/S0167-2738(02)00140-6,E
(La2O3)0.1(SrO)0.8(TiO2)1,408.4238653,651.0506329,1.00E-16,0,,https://doi.org/10.1016/S0167-2738(02)00140-6,E
(La2O3)0.1(SrO)0.8(TiO2)1,550.4789808,517.6137184,1.00E-16,0,,https://doi.org/10.1016/S0167-2738(02)00140-6,E
(La2O3)0.1(SrO)0.8(TiO2)1,710.9709432,428.9230769,1.00E-16,0,,https://doi.org/10.1016/S0167-2738(02)00140-6,E
(La2O3)0.1(SrO)0.8(TiO2)1,879.9225436,353.6094421,1.00E-16,0,,https://doi.org/10.1016/S0167-2738(02)00140-6,E
(La2O3)0.1(SrO)0.8(TiO2)1,1000,289.2593068,1.00E-16,0,,https://doi.org/10.1016/S0167-2738(02)00140-6,E
(La2O3)0.1(SrO)0.8(TiO2)1,1185.971012,231.027618,1.00E-16,0,,https://doi.org/10.1016/S0167-2738(02)00140-6,E
(La2O3)0.1(SrO)0.8(TiO2)1,1291.549665,193.4536741,1.00E-16,0,,https://doi.org/10.1016/S0167-2738(02)00140-6,E
(La2O3)0.1(SrO)0.8(TiO2)1,1406.527242,163.2549801,1.00E-16,0,,https://doi.org/10.1016/S0167-2738(02)00140-6,E
(La2O3)0.1(SrO)0.8(TiO2)1,1406.527242,136.7287184,1.00E-16,0,,https://doi.org/10.1016/S0167-2738(02)00140-6,E
(La2O3)0.1(SrO)0.8(TiO2)1,1531.740464,116.6797153,1.00E-16,0,,https://doi.org/10.1016/S0167-2738(02)00140-6,E
(La2O3)0.1(SrO)0.8(TiO2)1,1668.100537,96.93243243,1.00E-16,0,,https://doi.org/10.1016/S0167-2738(02)00140-6,E
(La2O3)0.1(SrO)0.8(TiO2)1,1740.767383,77.68054444,1.00E-16,0,,https://doi.org/10.1016/S0167-2738(02)00140-6,E
(La2O3)0.1(SrO)0.8(TiO2)1,1668.100537,62.88957055,1.00E-16,0,,https://doi.org/10.1016/S0167-2738(02)00140-6,E
(La2O3)0.15(SrO)0.7(TiO2)1,3.72759372,1000,8.70E-20,0,,https://doi.org/10.1016/S0167-2738(02)00140-6,E
(La2O3)0.15(SrO)0.7(TiO2)1,3.268027589,1000,1.12E-16,0,,https://doi.org/10.1016/S0167-2738(02)00140-6,E
(La2O3)0.15(SrO)0.7(TiO2)1,2.511886432,1000,1.22E-14,0,,https://doi.org/10.1016/S0167-2738(02)00140-6,E
(La2O3)0.15(SrO)0.7(TiO2)1,2.20220195,1000,1.33E-12,0,,https://doi.org/10.1016/S0167-2738(02)00140-6,E
(La2O3)0.15(SrO)0.7(TiO2)1,2.06198601,1000,1.45E-10,0,,https://doi.org/10.1016/S0167-2738(02)00140-6,E
(La2O3)0.15(SrO)0.7(TiO2)1,1.692666615,1000,1.23E-08,0,,https://doi.org/10.1016/S0167-2738(02)00140-6,E
(La2O3)0.15(SrO)0.7(TiO2)1,1.483981789,1000,1.34E-06,0,,https://doi.org/10.1016/S0167-2738(02)00140-6,E
(La2O3)0.15(SrO)0.7(TiO2)1,1.389495494,1000,1.06E-03,0,,https://doi.org/10.1016/S0167-2738(02)00140-6,E
(La2O3)0.15(SrO)0.7(TiO2)1,1.068000433,1000,2.06E+01,0,,https://doi.org/10.1016/S0167-2738(02)00140-6,E
(La2O3)0.15(SrO)0.7(TiO2)1,505.4796821,797.9046455,1.00E-16,0,,https://doi.org/10.1016/S0167-2738(02)00140-6,E
(La2O3)0.15(SrO)0.7(TiO2)1,774.2636827,613.6396761,1.00E-16,0,,https://doi.org/10.1016/S0167-2738(02)00140-6,E
(La2O3)0.15(SrO)0.7(TiO2)1,1089.022962,477,1.00E-16,0,,https://doi.org/10.1016/S0167-2738(02)00140-6,E
(La2O3)0.15(SrO)0.7(TiO2)1,1406.527242,407.1242236,1.00E-16,0,,https://doi.org/10.1016/S0167-2738(02)00140-6,E
(La2O3)0.15(SrO)0.7(TiO2)1,1668.100537,344.7715092,1.00E-16,0,,https://doi.org/10.1016/S0167-2738(02)00140-6,E
(La2O3)0.15(SrO)0.7(TiO2)1,1895.735652,289.2593068,1.00E-16,0,,https://doi.org/10.1016/S0167-2738(02)00140-6,E
(La2O3)0.15(SrO)0.7(TiO2)1,2248.287531,245.957346,1.00E-16,0,,https://doi.org/10.1016/S0167-2738(02)00140-6,E
(La2O3)0.15(SrO)0.7(TiO2)1,2448.436747,195.9507495,1.00E-16,0,,https://doi.org/10.1016/S0167-2738(02)00140-6,E
(La2O3)0.15(SrO)0.7(TiO2)1,2666.403839,163.2549801,1.00E-16,0,,https://doi.org/10.1016/S0167-2738(02)00140-6,E
(La2O3)0.15(SrO)0.7(TiO2)1,3030.271083,134.8212291,1.00E-16,0,,https://doi.org/10.1016/S0167-2738(02)00140-6,E
(La2O3)0.15(SrO)0.7(TiO2)1,3300.034791,111.547849,1.00E-16,0,,https://doi.org/10.1016/S0167-2738(02)00140-6,E
(La2O3)0.15(SrO)0.7(TiO2)1,3913.745602,96.93243243,1.00E-16,0,,https://doi.org/10.1016/S0167-2738(02)00140-6,E
(La2O3)0.15(SrO)0.7(TiO2)1,3913.745602,72.1536643,1.00E-16,0,,https://doi.org/10.1016/S0167-2738(02)00140-6,E
(La2O3)0.2(SrO)0.6(TiO2)1,57.90431708,880.332446,0,0,,https://doi.org/10.1016/S0167-2738(98)00428-7,E
(La2O3)0.2(SrO)0.6(TiO2)1,47.40177028,756.7789646,0,0,,https://doi.org/10.1016/S0167-2738(98)00428-7,E
(La2O3)0.2(SrO)0.6(TiO2)1,42.79564689,610.3945994,0,0,,https://doi.org/10.1016/S0167-2738(98)00428-7,E
(La2O3)0.2(SrO)0.6(TiO2)1,38.62261832,489.2817639,0,0,,https://doi.org/10.1016/S0167-2738(98)00428-7,E
(La2O3)0.2(SrO)0.6(TiO2)1,30.05602154,406.041596,0,0,,https://doi.org/10.1016/S0167-2738(98)00428-7,E
(La2O3)0.2(SrO)0.6(TiO2)1,23.33693252,299.3732778,0,0,,https://doi.org/10.1016/S0167-2738(98)00428-7,E
(La2O3)0.2(SrO)0.6(TiO2)1,14.11939341,199.5707265,0,0,,https://doi.org/10.1016/S0167-2738(98)00428-7,E
(La2O3)0.2(SrO)0.6(TiO2)1,6.977412861,96.99716187,0,0,,https://doi.org/10.1016/S0167-2738(98)00428-7,E
(La2O3)0.2(SrO)0.6(TiO2)1,4.217541813,47.61095284,0,0,,https://doi.org/10.1016/S0167-2738(98)00428-7,E
(La2O3)0.2(SrO)0.6(TiO2)1,3.623079703,31.00723109,0,0,,https://doi.org/10.1016/S0167-2738(98)00428-7,E
(La2O3)0.2(SrO)0.6(TiO2)1,22.0220195,1000,1.07E-18,0,,https://doi.org/10.1016/S0167-2738(02)00140-6,E
(La2O3)0.2(SrO)0.6(TiO2)1,14.83981789,1000,1.16E-16,0,,https://doi.org/10.1016/S0167-2738(02)00140-6,E
(La2O3)0.2(SrO)0.6(TiO2)1,6.738627168,1000,1.24E-14,0,,https://doi.org/10.1016/S0167-2738(02)00140-6,E
(La2O3)0.2(SrO)0.6(TiO2)1,3.490254879,1000,1.05E-12,0,,https://doi.org/10.1016/S0167-2738(02)00140-6,E