Composition,Conductivity (S/cm),Temperature (degC),PO2 (%),PH2O (%),Grainsize,Ref,Carrier Type
(SrO)0.8(Y2O3)0.1(V2O3)0.5,411.215996,700,2.12339E-22,0,,https://doi.org/10.1016/j.ssi.2013.06.002,E
(SrO)0.8(Y2O3)0.1(V2O3)0.5,415.8244292,700,4.15489E-21,0,,https://doi.org/10.1016/j.ssi.2013.06.002,E
(SrO)0.8(Y2O3)0.1(V2O3)0.5,411.215996,700,1.74856E-20,0,,https://doi.org/10.1016/j.ssi.2013.06.002,E
(SrO)0.8(Y2O3)0.1(V2O3)0.5,411.215996,700,2.72659E-20,0,,https://doi.org/10.1016/j.ssi.2013.06.002,E
(SrO)0.8(Y2O3)0.1(V2O3)0.5,411.215996,700,1.36934E-19,0,,https://doi.org/10.1016/j.ssi.2013.06.002,E
(La2O3)0.45(SrO)0.1(Ga2O3)0.5,0.065423175,1149.401459,0.01,0,,https://doi.org/10.1021/ja00088a016,O
(La2O3)0.45(SrO)0.1(Ga2O3)0.5,0.054068731,1071.080776,0.01,0,,https://doi.org/10.1021/ja00088a016,O
(La2O3)0.45(SrO)0.1(Ga2O3)0.5,0.044681694,996.5340785,0.01,0,,https://doi.org/10.1021/ja00088a016,O
(La2O3)0.45(SrO)0.1(Ga2O3)0.5,0.033936319,921.904648,0.01,0,,https://doi.org/10.1021/ja00088a016,O
(La2O3)0.45(SrO)0.1(Ga2O3)0.5,0.025775069,855.562233,0.01,0,,https://doi.org/10.1021/ja00088a016,O
(La2O3)0.45(SrO)0.1(Ga2O3)0.5,0.017992296,789.9385738,0.01,0,,https://doi.org/10.1021/ja00088a016,O
(La2O3)0.45(SrO)0.1(Ga2O3)0.5,0.012294259,720.6463513,0.01,0,,https://doi.org/10.1021/ja00088a016,O
(La2O3)0.45(SrO)0.1(Ga2O3)0.5,0.007560026,655.0521395,0.01,0,,https://doi.org/10.1021/ja00088a016,O
(La2O3)0.45(SrO)0.1(Ga2O3)0.5,0.004364199,597.5441375,0.01,0,,https://doi.org/10.1021/ja00088a016,O
(La2O3)0.45(SrO)0.1(Ga2O3)0.5,0.002083587,537.6072451,0.01,0,,https://doi.org/10.1021/ja00088a016,O
(La2O3)0.45(BaO)0.1(Ga2O3)0.5,0.030010889,1142.685733,0.01,0,,https://doi.org/10.1021/ja00088a016,O
(La2O3)0.45(BaO)0.1(Ga2O3)0.5,0.02480416,1069.972617,0.01,0,,https://doi.org/10.1021/ja00088a016,O
(La2O3)0.45(BaO)0.1(Ga2O3)0.5,0.020072088,999.912558,0.01,0,,https://doi.org/10.1021/ja00088a016,O
(La2O3)0.45(BaO)0.1(Ga2O3)0.5,0.015245008,924.8971272,0.01,0,,https://doi.org/10.1021/ja00088a016,O
(La2O3)0.45(BaO)0.1(Ga2O3)0.5,0.011338284,861.7028686,0.01,0,,https://doi.org/10.1021/ja00088a016,O
(La2O3)0.45(BaO)0.1(Ga2O3)0.5,0.007914693,795.3841175,0.01,0,,https://doi.org/10.1021/ja00088a016,O
(La2O3)0.45(BaO)0.1(Ga2O3)0.5,0.005295456,725.3869264,0.01,0,,https://doi.org/10.1021/ja00088a016,O
(La2O3)0.45(BaO)0.1(Ga2O3)0.5,0.003396388,659.2150233,0.01,0,,https://doi.org/10.1021/ja00088a016,O
(La2O3)0.45(BaO)0.1(Ga2O3)0.5,0.001840335,597.0288897,0.01,0,,https://doi.org/10.1021/ja00088a016,O
(La2O3)0.45(BaO)0.1(Ga2O3)0.5,0.000842204,531.8160432,0.01,0,,https://doi.org/10.1021/ja00088a016,O
(La2O3)0.45(CaO)0.1(Ga2O3)0.5,0.026448416,1142.486239,0.01,0,,https://doi.org/10.1021/ja00088a016,O
(La2O3)0.45(CaO)0.1(Ga2O3)0.5,0.020521341,1069.703341,0.01,0,,https://doi.org/10.1021/ja00088a016,O
(La2O3)0.45(CaO)0.1(Ga2O3)0.5,0.016257921,990.8899447,0.01,0,,https://doi.org/10.1021/ja00088a016,O
(La2O3)0.45(CaO)0.1(Ga2O3)0.5,0.011592888,920.6976527,0.01,0,,https://doi.org/10.1021/ja00088a016,O
(La2O3)0.45(CaO)0.1(Ga2O3)0.5,0.008093579,854.40112,0.01,0,,https://doi.org/10.1021/ja00088a016,O
(La2O3)0.45(CaO)0.1(Ga2O3)0.5,0.004875304,788.7775497,0.01,0,,https://doi.org/10.1021/ja00088a016,O
(La2O3)0.45(CaO)0.1(Ga2O3)0.5,0.002698878,722.1558008,0.01,0,,https://doi.org/10.1021/ja00088a016,O
(La2O3)0.45(CaO)0.1(Ga2O3)0.5,0.001344336,653.8817824,0.01,0,,https://doi.org/10.1021/ja00088a016,O
(La2O3)0.45(CaO)0.1(Ga2O3)0.5,0.000615481,592.2822868,0.01,0,,https://doi.org/10.1021/ja00088a016,O
(La2O3)0.45(CaO)0.1(Ga2O3)0.5,0.000248267,531.1931798,0.01,0,,https://doi.org/10.1021/ja00088a016,O
(La2O3)0.45(CaO)0.1(Ga2O3)0.5,0.642693085,977.237644,0.01,0,,https://doi.org/10.1021/ja00088a016,O
(La2O3)0.45(SrO)0.1(Ga2O3)0.5,0.022387211,900,1.00E-17,0,,https://doi.org/10.1021/ja00088a016,O
(La2O3)0.45(SrO)0.1(Ga2O3)0.5,0.022387211,900,1.00E-12,0,,https://doi.org/10.1021/ja00088a016,O
(La2O3)0.45(SrO)0.1(Ga2O3)0.5,0.022387211,900,1.00E-07,0,,https://doi.org/10.1021/ja00088a016,O
(La2O3)0.45(SrO)0.1(Ga2O3)0.5,0.022387211,900,2.00E+01,0,,https://doi.org/10.1021/ja00088a016,O
(La2O3)0.45(BaO)0.1(Al2O3)0.5,0.015629187,1206.200268,2.00E+01,0,,https://doi.org/10.1016/0167-2738(92)90095-7,O+E
(La2O3)0.45(BaO)0.1(Al2O3)0.5,0.013590515,1183.232125,2.00E+01,0,,https://doi.org/10.1016/0167-2738(92)90095-7,O+E
(La2O3)0.45(BaO)0.1(Al2O3)0.5,0.012138406,1147.878863,2.00E+01,0,,https://doi.org/10.1016/0167-2738(92)90095-7,O+E
(La2O3)0.45(BaO)0.1(Al2O3)0.5,0.010239845,1089.960855,2.00E+01,0,,https://doi.org/10.1016/0167-2738(92)90095-7,O+E
(La2O3)0.45(BaO)0.1(Al2O3)0.5,0.006907237,1007.96054,2.00E+01,0,,https://doi.org/10.1016/0167-2738(92)90095-7,O+E
(La2O3)0.45(BaO)0.1(Al2O3)0.5,0.00599738,973.8489898,2.00E+01,0,,https://doi.org/10.1016/0167-2738(92)90095-7,O+E
(La2O3)0.45(BaO)0.1(Al2O3)0.5,0.005359747,954.2500636,2.00E+01,0,,https://doi.org/10.1016/0167-2738(92)90095-7,O+E
(La2O3)0.45(BaO)0.1(Al2O3)0.5,0.004787073,929.0445548,2.00E+01,0,,https://doi.org/10.1016/0167-2738(92)90095-7,O+E
(La2O3)0.45(BaO)0.1(Al2O3)0.5,0.004275587,904.8535613,2.00E+01,0,,https://doi.org/10.1016/0167-2738(92)90095-7,O+E
(La2O3)0.45(BaO)0.1(Al2O3)0.5,0.002885783,848.4641903,2.00E+01,0,,https://doi.org/10.1016/0167-2738(92)90095-7,O+E
(La2O3)0.45(BaO)0.1(Al2O3)0.5,0.002651295,832.5759033,2.00E+01,0,,https://doi.org/10.1016/0167-2738(92)90095-7,O+E
(La2O3)0.45(BaO)0.1(Al2O3)0.5,0.001470579,761.7669602,2.00E+01,0,,https://doi.org/10.1016/0167-2738(92)90095-7,O+E
(La2O3)0.45(BaO)0.1(Al2O3)0.5,0.001109655,724.3078629,2.00E+01,0,,https://doi.org/10.1016/0167-2738(92)90095-7,O+E
(La2O3)0.45(BaO)0.1(Al2O3)0.5,0.000991678,711.7292876,2.00E+01,0,,https://doi.org/10.1016/0167-2738(92)90095-7,O+E
(La2O3)0.45(BaO)0.1(Al2O3)0.5,0.000748513,679.6832798,2.00E+01,0,,https://doi.org/10.1016/0167-2738(92)90095-7,O+E
(La2O3)0.45(BaO)0.1(Al2O3)0.5,0.000598166,660.7023781,2.00E+01,0,,https://doi.org/10.1016/0167-2738(92)90095-7,O+E
(La2O3)0.45(BaO)0.1(Al2O3)0.5,0.000381776,621.4866825,2.00E+01,0,,https://doi.org/10.1016/0167-2738(92)90095-7,O+E
(Nd2O3)0.45(CaO)0.1(Al2O3)0.5,0.007116241,933.7419805,1.00E-03,0,356.743,10.1149/1.2059351,O
(Nd2O3)0.45(CaO)0.1(Al2O3)0.5,0.005209212,879.11506,1.00E-03,0,356.743,10.1149/1.2059351,O
(Nd2O3)0.45(CaO)0.1(Al2O3)0.5,0.003274778,829.2805169,1.00E-03,0,356.743,10.1149/1.2059351,O
(Nd2O3)0.45(CaO)0.1(Al2O3)0.5,0.002222146,785.2444083,1.00E-03,0,356.743,10.1149/1.2059351,O
(Nd2O3)0.45(CaO)0.1(Al2O3)0.5,0.001394541,733.7524413,1.00E-03,0,356.743,10.1149/1.2059351,O
(Nd2O3)0.45(CaO)0.1(Al2O3)0.5,0.000790251,684.2848661,1.00E-03,0,356.743,10.1149/1.2059351,O
(Nd2O3)0.45(CaO)0.1(Al2O3)0.5,0.000404016,633.2146593,1.00E-03,0,356.743,10.1149/1.2059351,O
(Nd2O3)0.45(CaO)0.1(Al2O3)0.5,0.000200799,576.2542286,1.00E-03,0,356.743,10.1149/1.2059351,O
(Nd2O3)0.45(CaO)0.1(Al2O3)0.5,8.81114E-05,533.8720259,1.00E-03,0,356.743,10.1149/1.2059351,O
(Nd2O3)0.45(CaO)0.1(Al2O3)0.5,3.95544E-05,487.5442004,1.00E-03,0,,10.1149/1.2059351,O
(Nd2O3)0.45(CaO)0.1(Al2O3)0.5,0.00271672,943.1009852,1.00E-03,0,,10.1149/1.2059351,O
(Nd2O3)0.45(SrO)0.1(Al2O3)0.5,0.001942223,900.0305063,1.00E-03,0,,10.1149/1.2059351,O
(Nd2O3)0.45(SrO)0.1(Al2O3)0.5,0.001352177,852.1919582,1.00E-03,0,,10.1149/1.2059351,O
(Nd2O3)0.45(SrO)0.1(Al2O3)0.5,0.000871388,801.0943304,1.00E-03,0,,10.1149/1.2059351,O
(Nd2O3)0.45(SrO)0.1(Al2O3)0.5,0.000575483,749.6516083,1.00E-03,0,,10.1149/1.2059351,O
(Nd2O3)0.45(SrO)0.1(Al2O3)0.5,0.000343185,700.0655046,1.00E-03,0,,10.1149/1.2059351,O
(Nd2O3)0.45(SrO)0.1(Al2O3)0.5,0.000184586,647.3298814,1.00E-03,0,,10.1149/1.2059351,O
(Nd2O3)0.45(SrO)0.1(Al2O3)0.5,9.92246E-05,597.7131202,1.00E-03,0,,10.1149/1.2059351,O
(Nd2O3)0.45(SrO)0.1(Al2O3)0.5,4.4569E-05,546.0358011,1.00E-03,0,,10.1149/1.2059351,O
(Nd2O3)0.45(SrO)0.1(Al2O3)0.5,1.59094E-05,495.6915288,1.00E-03,0,,10.1149/1.2059351,O
(Nd2O3)0.45(BaO)0.1(Al2O3)0.5,0.000230402,896.834628,1.00E-03,0,,10.1149/1.2059351,O
(Nd2O3)0.45(BaO)0.1(Al2O3)0.5,0.000160499,853.0803971,1.00E-03,0,,10.1149/1.2059351,O
(Nd2O3)0.45(BaO)0.1(Al2O3)0.5,0.000120472,803.5992056,1.00E-03,0,,10.1149/1.2059351,O
(Nd2O3)0.45(BaO)0.1(Al2O3)0.5,9.2591E-05,748.6965805,1.00E-03,0,,10.1149/1.2059351,O
(Nd2O3)0.45(BaO)0.1(Al2O3)0.5,6.43134E-05,700.5874357,1.00E-03,0,,10.1149/1.2059351,O
(Nd2O3)0.45(BaO)0.1(Al2O3)0.5,4.02795E-05,647.7542964,1.00E-03,0,,10.1149/1.2059351,O
(Nd2O3)0.45(BaO)0.1(Al2O3)0.5,2.33781E-05,600.3792389,1.00E-03,0,,10.1149/1.2059351,O
(Nd2O3)0.45(BaO)0.1(Al2O3)0.5,1.1041E-05,546.3438957,1.00E-03,0,,10.1149/1.2059351,O
(Nd2O3)0.45(BaO)0.1(Al2O3)0.5,7.24355E-06,494.949922,1.00E-03,0,,10.1149/1.2059351,O
(Nd2O3)0.45(CaO)0.1(Al2O3)0.5,0.007532764,950,5.87E-21,0,356.743,10.1149/1.2059351,O
(Nd2O3)0.45(CaO)0.1(Al2O3)0.5,0.007077944,950,2.50E-18,0,356.743,10.1149/1.2059351,O
(Nd2O3)0.45(CaO)0.1(Al2O3)0.5,0.007152056,950,4.11E-12,0,356.743,10.1149/1.2059351,O
(Nd2O3)0.45(CaO)0.1(Al2O3)0.5,0.00758082,950,2.87E-03,0,356.743,10.1149/1.2059351,O
(Nd2O3)0.45(CaO)0.1(Al2O3)0.5,0.011317775,950,6.93E+01,0,356.743,10.1149/1.2059351,O
(Nd2O3)0.45(SrO)0.1(Al2O3)0.5,0.002433059,950,2.55E-20,0,,10.1149/1.2059351,O
(Nd2O3)0.45(SrO)0.1(Al2O3)0.5,0.002425069,950,4.00E-19,0,,10.1149/1.2059351,O
(Nd2O3)0.45(SrO)0.1(Al2O3)0.5,0.002248861,950,1.03E-11,0,,10.1149/1.2059351,O
(Nd2O3)0.45(SrO)0.1(Al2O3)0.5,0.002592245,950,2.39E-03,0,,10.1149/1.2059351,O
(Nd2O3)0.45(SrO)0.1(Al2O3)0.5,0.006177501,950,6.93E+01,0,,10.1149/1.2059351,O
(Nd2O3)0.45(BaO)0.1(Al2O3)0.5,0.000466477,950,3.68E-20,0,,10.1149/1.2059351,O
(Nd2O3)0.45(BaO)0.1(Al2O3)0.5,0.000452324,950,5.77E-19,0,,10.1149/1.2059351,O
(Nd2O3)0.45(BaO)0.1(Al2O3)0.5,0.00045666,950,1.97E-12,0,,10.1149/1.2059351,O
(Nd2O3)0.45(BaO)0.1(Al2O3)0.5,0.00086235,950,1.99E-03,0,,10.1149/1.2059351,O
(Nd2O3)0.45(BaO)0.1(Al2O3)0.5,0.005096156,950,5.77E+01,0,,10.1149/1.2059351,O
(Nd2O3)0.45(CaO)0.1(Al2O3)0.5,0.007127347,950,1.00E-03,0,356.743,10.1149/1.2059351,O
(Nd2O3)0.45(CaO)0.1(Al2O3)0.5,0.006822575,950,4.76E-21,0,,10.1149/1.2059351,O
(Nd2O3)0.45(CaO)0.1(Al2O3)0.5,0.006822575,950,1.99E-18,0,,10.1149/1.2059351,O
(Nd2O3)0.45(CaO)0.1(Al2O3)0.5,0.006764852,950,4.64E-12,0,,10.1149/1.2059351,O
(Nd2O3)0.45(CaO)0.1(Al2O3)0.5,0.007179407,950,2.70E-03,0,,10.1149/1.2059351,O
(Nd2O3)0.45(CaO)0.1(Al2O3)0.5,0.010979698,950,7.08E+01,0,,10.1149/1.2059351,O
(Nd2O3)0.45(CaO)0.1(Ga2O3)0.5,0.007302451,950,1.59E-20,0,,10.1149/1.2059351,O
(Nd2O3)0.45(CaO)0.1(Ga2O3)0.5,0.007427603,950,2.81E-18,0,,10.1149/1.2059351,O
(Nd2O3)0.45(CaO)0.1(Ga2O3)0.5,0.007240667,950,2.06E-10,0,,10.1149/1.2059351,O
(Nd2O3)0.45(CaO)0.1(Ga2O3)0.5,0.007302451,950,1.51E-02,0,,10.1149/1.2059351,O
(Nd2O3)0.45(CaO)0.1(Ga2O3)0.5,0.009342857,950,5.02E+01,0,,10.1149/1.2059351,O
(Nd2O3)0.45(CaO)0.1(Al2O3)0.5,0.007307285,950,1.00E-03,0,,10.1149/1.2059351,O
(Nd2O3)0.45(CaO)0.1(Ga2O3)0.5,0.007394987,950,1.00E-03,0,,10.1149/1.2059351,O
(La2O3)0.45(SrO)0.1(Al2O3)0.5,0.016619835,989.6210855,20,0,,https://doi.org/10.1016/S0167-2738(97)00101-X,O+E
(La2O3)0.45(SrO)0.1(Al2O3)0.5,0.011987408,942.802721,20,0,,https://doi.org/10.1016/S0167-2738(97)00101-X,O+E
(La2O3)0.45(SrO)0.1(Al2O3)0.5,0.008686193,892.3263955,20,0,,https://doi.org/10.1016/S0167-2738(97)00101-X,O+E
(La2O3)0.45(SrO)0.1(Al2O3)0.5,0.005908151,833.2463514,20,0,,https://doi.org/10.1016/S0167-2738(97)00101-X,O+E
(La2O3)0.45(SrO)0.1(Al2O3)0.5,0.003592737,779.9577706,20,0,,https://doi.org/10.1016/S0167-2738(97)00101-X,O+E
(La2O3)0.45(SrO)0.1(Al2O3)0.5,0.002237359,741.9973219,20,0,,https://doi.org/10.1016/S0167-2738(97)00101-X,O+E
(La2O3)0.45(SrO)0.1(Al2O3)0.5,0.001272315,687.453813,20,0,,https://doi.org/10.1016/S0167-2738(97)00101-X,O+E
(La2O3)0.45(SrO)0.1(Al2O3)0.5,0.000673813,634.2773699,20,0,,https://doi.org/10.1016/S0167-2738(97)00101-X,O+E
(La2O3)0.45(SrO)0.1(Al2O3)0.5,0.000343012,586.7003466,20,0,,https://doi.org/10.1016/S0167-2738(97)00101-X,O+E
(La2O3)0.45(SrO)0.1(Al2O3)0.5,0.000151756,537.1486451,20,0,,https://doi.org/10.1016/S0167-2738(97)00101-X,O+E
(La2O3)0.45(SrO)0.1(Al2O3)0.5,5.4398E-05,484.1690555,20,0,,https://doi.org/10.1016/S0167-2738(97)00101-X,O+E
(La2O3)0.45(SrO)0.1(Al2O3)0.5,1.67804E-05,437.7480141,20,0,,https://doi.org/10.1016/S0167-2738(97)00101-X,O+E
(La2O3)0.45(SrO)0.1(Al2O3)0.5,3.64242E-06,385.5020315,20,0,,https://doi.org/10.1016/S0167-2738(97)00101-X,O+E
(La2O3)0.45(SrO)0.1(Ga2O3)0.5,0.085841048,987.6826672,20,0,,https://doi.org/10.1016/S0167-2738(97)00101-X,O
(La2O3)0.45(SrO)0.1(Ga2O3)0.5,0.072085101,933.3365108,20,0,,https://doi.org/10.1016/S0167-2738(97)00101-X,O
(La2O3)0.45(SrO)0.1(Ga2O3)0.5,0.056169265,883.5546705,20,0,,https://doi.org/10.1016/S0167-2738(97)00101-X,O
(La2O3)0.45(SrO)0.1(Ga2O3)0.5,0.043692989,837.7186871,20,0,,https://doi.org/10.1016/S0167-2738(97)00101-X,O
(La2O3)0.45(SrO)0.1(Ga2O3)0.5,0.034120473,789.5557121,20,0,,https://doi.org/10.1016/S0167-2738(97)00101-X,O
(La2O3)0.45(SrO)0.1(Ga2O3)0.5,0.024852903,740.1606005,20,0,,https://doi.org/10.1016/S0167-2738(97)00101-X,O
(La2O3)0.45(SrO)0.1(Ga2O3)0.5,0.018153089,690.3709183,20,0,,https://doi.org/10.1016/S0167-2738(97)00101-X,O
(La2O3)0.45(SrO)0.1(Ga2O3)0.5,0.011912104,641.0097455,20,0,,https://doi.org/10.1016/S0167-2738(97)00101-X,O
(La2O3)0.45(SrO)0.1(Ga2O3)0.5,0.007312366,588.8156376,20,0,,https://doi.org/10.1016/S0167-2738(97)00101-X,O
(La2O3)0.45(SrO)0.1(Ga2O3)0.5,0.004027159,538.9198023,20,0,,https://doi.org/10.1016/S0167-2738(97)00101-X,O
(La2O3)0.45(SrO)0.1(Ga2O3)0.5,0.001925423,488.5539183,20,0,,https://doi.org/10.1016/S0167-2738(97)00101-X,O
(La2O3)0.45(SrO)0.1(Ga2O3)0.5,0.000825002,441.4859723,20,0,,https://doi.org/10.1016/S0167-2738(97)00101-X,O
(La2O3)0.45(SrO)0.1(Ga2O3)0.5,0.000258864,386.3538947,20,0,,https://doi.org/10.1016/S0167-2738(97)00101-X,O
(La2O3)0.45(SrO)0.1(Ga2O3)0.5,6.29426E-05,335.3717484,20,0,,https://doi.org/10.1016/S0167-2738(97)00101-X,O
(La2O3)0.45(SrO)0.1(Sc2O3)0.5,0.064110237,988.0268398,20,0,,https://doi.org/10.1016/S0167-2738(97)00101-X,O+H
(La2O3)0.45(SrO)0.1(Sc2O3)0.5,0.053837266,933.6516458,20,0,,https://doi.org/10.1016/S0167-2738(97)00101-X,O+H
(La2O3)0.45(SrO)0.1(Sc2O3)0.5,0.041453114,897.7351846,20,0,,https://doi.org/10.1016/S0167-2738(97)00101-X,O+H
(La2O3)0.45(SrO)0.1(Sc2O3)0.5,0.033845616,837.9524382,20,0,,https://doi.org/10.1016/S0167-2738(97)00101-X,O+H
(La2O3)0.45(SrO)0.1(Sc2O3)0.5,0.024570977,789.8307639,20,0,,https://doi.org/10.1016/S0167-2738(97)00101-X,O+H
(La2O3)0.45(SrO)0.1(Sc2O3)0.5,0.017345943,735.198734,20,0,,https://doi.org/10.1016/S0167-2738(97)00101-X,O+H
(La2O3)0.45(SrO)0.1(Sc2O3)0.5,0.012666797,685.8836702,20,0,,https://doi.org/10.1016/S0167-2738(97)00101-X,O+H
(La2O3)0.45(SrO)0.1(Sc2O3)0.5,0.008658941,632.7207284,20,0,,https://doi.org/10.1016/S0167-2738(97)00101-X,O+H
(La2O3)0.45(SrO)0.1(Sc2O3)0.5,0.0054617,588.9764635,20,0,,https://doi.org/10.1016/S0167-2738(97)00101-X,O+H
(La2O3)0.45(SrO)0.1(Sc2O3)0.5,0.003494948,535.6240098,20,0,,https://doi.org/10.1016/S0167-2738(97)00101-X,O+H
(La2O3)0.45(SrO)0.1(Sc2O3)0.5,0.002405799,485.4978858,20,0,,https://doi.org/10.1016/S0167-2738(97)00101-X,O+H
(La2O3)0.45(SrO)0.1(Sc2O3)0.5,0.001340032,433.5420025,20,0,,https://doi.org/10.1016/S0167-2738(97)00101-X,O+H
(La2O3)0.45(SrO)0.1(Sc2O3)0.5,0.000695323,383.8165659,20,0,,https://doi.org/10.1016/S0167-2738(97)00101-X,O+H
(La2O3)0.45(SrO)0.1(Sc2O3)0.5,0.000336903,334.9113612,20,0,,https://doi.org/10.1016/S0167-2738(97)00101-X,O+H
(La2O3)0.45(SrO)0.1(Sc2O3)0.5,0.000118611,284.7693753,20,0,,https://doi.org/10.1016/S0167-2738(97)00101-X,O+H
(La2O3)0.45(SrO)0.1(In2O3)0.5,0.041110912,996.7580922,20,0,,https://doi.org/10.1016/S0167-2738(97)00101-X,O+E
(La2O3)0.45(SrO)0.1(In2O3)0.5,0.031146066,934.2429678,20,0,,https://doi.org/10.1016/S0167-2738(97)00101-X,O+E
(La2O3)0.45(SrO)0.1(In2O3)0.5,0.023400501,884.4240834,20,0,,https://doi.org/10.1016/S0167-2738(97)00101-X,O+E
(La2O3)0.45(SrO)0.1(In2O3)0.5,0.017018895,832.2867719,20,0,,https://doi.org/10.1016/S0167-2738(97)00101-X,O+E
(La2O3)0.45(SrO)0.1(In2O3)0.5,0.012352516,784.6441461,20,0,,https://doi.org/10.1016/S0167-2738(97)00101-X,O+E
(La2O3)0.45(SrO)0.1(In2O3)0.5,0.008362539,735.749181,20,0,,https://doi.org/10.1016/S0167-2738(97)00101-X,O+E
(La2O3)0.45(SrO)0.1(In2O3)0.5,0.004906414,686.5310431,20,0,,https://doi.org/10.1016/S0167-2738(97)00101-X,O+E
(La2O3)0.45(SrO)0.1(In2O3)0.5,0.002794921,633.4094388,20,0,,https://doi.org/10.1016/S0167-2738(97)00101-X,O+E
(La2O3)0.45(SrO)0.1(In2O3)0.5,0.001428982,582.1542992,20,0,,https://doi.org/10.1016/S0167-2738(97)00101-X,O+E
(La2O3)0.45(SrO)0.1(In2O3)0.5,0.000708016,529.7393392,20,0,,https://doi.org/10.1016/S0167-2738(97)00101-X,O+E
(La2O3)0.45(SrO)0.1(In2O3)0.5,0.000336965,483.3941171,20,0,,https://doi.org/10.1016/S0167-2738(97)00101-X,O+E
(La2O3)0.45(SrO)0.1(In2O3)0.5,0.000156373,431.7834297,20,0,,https://doi.org/10.1016/S0167-2738(97)00101-X,O+E
(La2O3)0.45(SrO)0.1(In2O3)0.5,7.03489E-05,380.1479779,20,0,,https://doi.org/10.1016/S0167-2738(97)00101-X,O+E
(La2O3)0.45(SrO)0.1(In2O3)0.5,2.84806E-05,329.9468154,20,0,,https://doi.org/10.1016/S0167-2738(97)00101-X,O+E
(La2O3)0.45(SrO)0.1(In2O3)0.5,1.11787E-05,280.5623333,20,0,,https://doi.org/10.1016/S0167-2738(97)00101-X,O+E
(La2O3)0.45(SrO)0.1(Lu2O3)0.5,0.029796292,988.9311876,20,0,,https://doi.org/10.1016/S0167-2738(97)00101-X,O+E
(La2O3)0.45(SrO)0.1(Lu2O3)0.5,0.020102927,934.7164428,20,0,,https://doi.org/10.1016/S0167-2738(97)00101-X,O+E
(La2O3)0.45(SrO)0.1(Lu2O3)0.5,0.012206507,878.2399526,20,0,,https://doi.org/10.1016/S0167-2738(97)00101-X,O+E
(La2O3)0.45(SrO)0.1(Lu2O3)0.5,0.007583859,839.3235303,20,0,,https://doi.org/10.1016/S0167-2738(97)00101-X,O+E
(La2O3)0.45(SrO)0.1(Lu2O3)0.5,0.004471843,779.7777778,20,0,,https://doi.org/10.1016/S0167-2738(97)00101-X,O+E
(La2O3)0.45(SrO)0.1(Lu2O3)0.5,0.002615804,731.430612,20,0,,https://doi.org/10.1016/S0167-2738(97)00101-X,O+E
(La2O3)0.45(SrO)0.1(Lu2O3)0.5,0.001426447,682.6722227,20,0,,https://doi.org/10.1016/S0167-2738(97)00101-X,O+E
(La2O3)0.45(SrO)0.1(Lu2O3)0.5,0.000808628,634.1660038,20,0,,https://doi.org/10.1016/S0167-2738(97)00101-X,O+E
(La2O3)0.45(SrO)0.1(Lu2O3)0.5,0.000444743,582.7880476,20,0,,https://doi.org/10.1016/S0167-2738(97)00101-X,O+E
(La2O3)0.45(SrO)0.1(Lu2O3)0.5,0.00025393,533.550185,20,0,,https://doi.org/10.1016/S0167-2738(97)00101-X,O+E
(La2O3)0.45(SrO)0.1(Lu2O3)0.5,0.000146199,480.8249694,20,0,,https://doi.org/10.1016/S0167-2738(97)00101-X,O+E
(La2O3)0.45(SrO)0.1(Lu2O3)0.5,7.29626E-05,429.5256894,20,0,,https://doi.org/10.1016/S0167-2738(97)00101-X,O+E
(La2O3)0.45(SrO)0.1(Lu2O3)0.5,3.28167E-05,378.2084872,20,0,,https://doi.org/10.1016/S0167-2738(97)00101-X,O+E
(La2O3)0.45(SrO)0.1(Lu2O3)0.5,1.37761E-05,328.2838454,20,0,,https://doi.org/10.1016/S0167-2738(97)00101-X,O+E
(La2O3)0.45(SrO)0.1(Lu2O3)0.5,6.29031E-06,276.0182969,20,0,,https://doi.org/10.1016/S0167-2738(97)00101-X,O+E
(La2O3)0.45(SrO)0.1(Ga2O3)0.5,5e-4,860,2.00E+01,0,1,10.1.1.983.5883,O
(La2O3)0.45(SrO)0.1(Ga2O3)0.5,1.1e-3,900,2.00E+01,0,1,10.1.1.983.5883,O
(La2O3)0.45(SrO)0.1(Ga2O3)0.5,2.1e-3,1000,2.00E+01,0,1,10.1.1.983.5883,O
(La2O3)0.45(SrO)0.1(Mn2O3)0.5,157.2287446,1088.453696,100,0,,https://doi.org/10.1016/S0167-2738(00)00662-7,O+E
(La2O3)0.45(SrO)0.1(Mn2O3)0.5,140.4644641,942.3745928,100,0,,https://doi.org/10.1016/S0167-2738(00)00662-7,O+E
(La2O3)0.45(SrO)0.1(Mn2O3)0.5,125.6038645,743.0113277,100,0,,https://doi.org/10.1016/S0167-2738(00)00662-7,O+E
(La2O3)0.45(SrO)0.1(Mn2O3)0.5,96.49593201,599.3463948,100,0,,https://doi.org/10.1016/S0167-2738(00)00662-7,O+E
(La2O3)0.45(SrO)0.1(Mn2O3)0.5,83.07357634,491.5588296,100,0,,https://doi.org/10.1016/S0167-2738(00)00662-7,O+E
(La2O3)0.45(SrO)0.1(Mn2O3)0.5,61.45633837,400.4774918,100,0,,https://doi.org/10.1016/S0167-2738(00)00662-7,O+E
(La2O3)0.45(SrO)0.1(Mn2O3)0.5,61.53603401,357.0148588,100,0,,https://doi.org/10.1016/S0167-2738(00)00662-7,O+E
(La2O3)0.45(SrO)0.1(Mn2O3)0.5,43.85224709,280.0325488,100,0,,https://doi.org/10.1016/S0167-2738(00)00662-7,O+E
(La2O3)0.45(SrO)0.1(Mn2O3)0.5,27.89761714,212.6942022,100,0,,https://doi.org/10.1016/S0167-2738(00)00662-7,O+E