Composition,Conductivity (S/cm),Temperature (degC),PO2 (%),PH2O (%),Grainsize,Ref,Carrier Type
(BaO)1(CeO2)0.85(Gd2O3)0.075,0.020232173,599.9595458,0,4,,https://doi.org/10.1016/j.electacta.2013.05.034,H
(BaO)1(CeO2)0.85(Gd2O3)0.075,0.016452771,550.8446082,0,4,,https://doi.org/10.1016/j.electacta.2013.05.034,H
(BaO)1(CeO2)0.85(Gd2O3)0.075,0.012743944,501.0717432,0,4,,https://doi.org/10.1016/j.electacta.2013.05.034,H
(BaO)1(CeO2)0.85(Gd2O3)0.075,0.042598094,799.3626853,20,0,,https://doi.org/10.1016/j.electacta.2013.05.034,H
(BaO)1(CeO2)0.85(Gd2O3)0.075,0.036998415,751.1465445,20,0,,https://doi.org/10.1016/j.electacta.2013.05.034,H
(BaO)1(CeO2)0.85(Gd2O3)0.075,0.03178767,700.871734,20,0,,https://doi.org/10.1016/j.electacta.2013.05.034,H
(BaO)1(CeO2)0.85(Gd2O3)0.075,0.026286471,649.7306827,20,0,,https://doi.org/10.1016/j.electacta.2013.05.034,H
(BaO)1(CeO2)0.85(Gd2O3)0.075,0.02157399,599.9595458,20,0,,https://doi.org/10.1016/j.electacta.2013.05.034,H
(BaO)1(CeO2)0.85(Gd2O3)0.075,0.017227732,550.8446082,20,0,,https://doi.org/10.1016/j.electacta.2013.05.034,H
(BaO)1(CeO2)0.85(Gd2O3)0.075,0.012424085,501.0717432,20,0,,https://doi.org/10.1016/j.electacta.2013.05.034,H
(BaO)1(CeO2)0.85(Y2O3)0.075,0.044503123,799.3626853,0,4,,https://doi.org/10.1016/j.electacta.2013.05.034,H
(BaO)1(CeO2)0.85(Y2O3)0.075,0.037256478,749.4438903,0,4,,https://doi.org/10.1016/j.electacta.2013.05.034,H
(BaO)1(CeO2)0.85(Y2O3)0.075,0.030860958,699.3320158,0,4,,https://doi.org/10.1016/j.electacta.2013.05.034,H
(BaO)1(CeO2)0.85(Y2O3)0.075,0.02596567,649.7306827,0,4,,https://doi.org/10.1016/j.electacta.2013.05.034,H
(BaO)1(CeO2)0.85(Y2O3)0.075,0.021341794,599.9595458,0,4,,https://doi.org/10.1016/j.electacta.2013.05.034,H
(BaO)1(CeO2)0.85(Y2O3)0.075,0.017379305,549.7424749,0,4,,https://doi.org/10.1016/j.electacta.2013.05.034,H
(BaO)1(CeO2)0.85(Y2O3)0.075,0.013105932,500.0986801,0,4,,https://doi.org/10.1016/j.electacta.2013.05.034,H
(BaO)1(CeO2)0.85(Y2O3)0.075,0.045481546,799.3626853,20,0,,https://doi.org/10.1016/j.electacta.2013.05.034,H
(BaO)1(CeO2)0.85(Y2O3)0.075,0.03957129,749.4438903,20,0,,https://doi.org/10.1016/j.electacta.2013.05.034,H
(BaO)1(CeO2)0.85(Y2O3)0.075,0.033544116,699.3320158,20,0,,https://doi.org/10.1016/j.electacta.2013.05.034,H
(BaO)1(CeO2)0.85(Y2O3)0.075,0.027738946,649.7306827,20,0,,https://doi.org/10.1016/j.electacta.2013.05.034,H
(BaO)1(CeO2)0.85(Y2O3)0.075,0.020662785,599.9595458,20,0,,https://doi.org/10.1016/j.electacta.2013.05.034,H
(BaO)1(CeO2)0.85(Y2O3)0.075,0.017697297,549.7424749,20,0,,https://doi.org/10.1016/j.electacta.2013.05.034,H
(BaO)1(CeO2)0.85(Y2O3)0.075,0.012592265,500.0986801,20,0,,https://doi.org/10.1016/j.electacta.2013.05.034,H
(BaO)1(CeO2)0.85(Sm2O3)0.075,0.07816238,900.4059448,20,1.9,4,https://doi.org/10.1016/j.jpowsour.2008.01.036,O+H
(BaO)1(CeO2)0.85(Sm2O3)0.075,0.062149851,849.7108819,20,1.9,4,https://doi.org/10.1016/j.jpowsour.2008.01.036,O+H
(BaO)1(CeO2)0.85(Sm2O3)0.075,0.047820864,799.6246239,20,1.9,4,https://doi.org/10.1016/j.jpowsour.2008.01.036,O+H
(BaO)1(CeO2)0.85(Sm2O3)0.075,0.037411192,749.9269747,20,1.9,4,https://doi.org/10.1016/j.jpowsour.2008.01.036,O+H
(BaO)1(CeO2)0.85(Sm2O3)0.075,0.027408509,700.4983725,20,1.9,4,https://doi.org/10.1016/j.jpowsour.2008.01.036,O+H
(BaO)1(CeO2)0.85(Sm2O3)0.075,0.020757874,650.3009405,20,1.9,4,https://doi.org/10.1016/j.jpowsour.2008.01.036,O+H
(BaO)1(CeO2)0.85(Sm2O3)0.075,0.016527406,599.7724672,20,1.9,4,https://doi.org/10.1016/j.jpowsour.2008.01.036,O+H
(BaO)1(CeO2)0.85(Sm2O3)0.075,0.009571689,600,0,1.9,4,https://doi.org/10.1016/j.jpowsour.2008.01.036,H
(BaO)1(CeO2)0.85(Sm2O3)0.075,0.011403396,650,0,1.9,4,https://doi.org/10.1016/j.jpowsour.2008.01.036,H
(BaO)1(CeO2)0.85(Sm2O3)0.075,0.012666645,700,0,1.9,4,https://doi.org/10.1016/j.jpowsour.2008.01.036,H
(BaO)1(CeO2)0.85(Sm2O3)0.075,0.014571293,750,0,1.9,4,https://doi.org/10.1016/j.jpowsour.2008.01.036,H
(BaO)1(CeO2)0.85(Sm2O3)0.075,0.016762338,800,0,1.9,4,https://doi.org/10.1016/j.jpowsour.2008.01.036,H
(BaO)1(CeO2)0.85(Sm2O3)0.075,0.021418965,850,0,1.9,4,https://doi.org/10.1016/j.jpowsour.2008.01.036,H
(BaO)1(CeO2)0.85(Sm2O3)0.075,0.0293549,900,0,1.9,4,https://doi.org/10.1016/j.jpowsour.2008.01.036,H
(BaO)1(SnO2)0.875(Y2O3)0.0625,0.024140228,828.2282835,0,2.40E+00,,https://doi.org/10.1016/j.ssi.2012.02.045,H
(BaO)1(SnO2)0.875(Y2O3)0.0625,0.015571402,775.2479355,0,2.40E+00,,https://doi.org/10.1016/j.ssi.2012.02.045,H
(BaO)1(SnO2)0.875(Y2O3)0.0625,0.007394973,734.1277665,0,2.40E+00,,https://doi.org/10.1016/j.ssi.2012.02.045,H
(BaO)1(SnO2)0.875(Y2O3)0.0625,0.003870273,696.096486,0,2.40E+00,,https://doi.org/10.1016/j.ssi.2012.02.045,H
(BaO)1(SnO2)0.875(Y2O3)0.0625,0.001676501,652.9104403,0,2.40E+00,,https://doi.org/10.1016/j.ssi.2012.02.045,H
(BaO)1(SnO2)0.875(Y2O3)0.0625,0.000766745,608.0168793,0,2.40E+00,,https://doi.org/10.1016/j.ssi.2012.02.045,H
(BaO)1(SnO2)0.875(Y2O3)0.0625,0.000427135,565.6322715,0,2.40E+00,,https://doi.org/10.1016/j.ssi.2012.02.045,H
(BaO)1(SnO2)0.875(Y2O3)0.0625,0.000178433,519.8776255,0,2.40E+00,,https://doi.org/10.1016/j.ssi.2012.02.045,H
(BaO)1(SnO2)0.875(Y2O3)0.0625,0.000182114,473.6124371,0,2.40E+00,,https://doi.org/10.1016/j.ssi.2012.02.045,H
(BaO)1(SnO2)0.875(Y2O3)0.0625,0.000120169,425.6866372,0,2.40E+00,,https://doi.org/10.1016/j.ssi.2012.02.045,H
(BaO)1(SnO2)0.875(Y2O3)0.0625,7.23169E-05,377.6572147,0,2.40E+00,,https://doi.org/10.1016/j.ssi.2012.02.045,H
(BaO)1(SnO2)0.875(Y2O3)0.0625,3.25941E-05,329.9176268,0,2.40E+00,,https://doi.org/10.1016/j.ssi.2012.02.045,H
(BaO)1(SnO2)0.875(Y2O3)0.0625,9.60875E-06,277.3566321,0,2.40E+00,,https://doi.org/10.1016/j.ssi.2012.02.045,H
(BaO)1(SnO2)0.875(Y2O3)0.0625,0.000964348,700,9.71511E-05,0.00E+00,,https://doi.org/10.1016/j.ssi.2012.02.045,H+E
(BaO)1(SnO2)0.875(Y2O3)0.0625,0.00097496,700,0.000952971,0.00E+00,,https://doi.org/10.1016/j.ssi.2012.02.045,H+E
(BaO)1(SnO2)0.875(Y2O3)0.0625,0.000979815,700,0.009621961,0.00E+00,,https://doi.org/10.1016/j.ssi.2012.02.045,H+E
(BaO)1(SnO2)0.875(Y2O3)0.0625,0.001136259,700,0.097151095,0.00E+00,,https://doi.org/10.1016/j.ssi.2012.02.045,H+E
(BaO)1(SnO2)0.875(Y2O3)0.0625,0.001613701,700,1.428274608,0.00E+00,,https://doi.org/10.1016/j.ssi.2012.02.045,H+E
(BaO)1(SnO2)0.875(Y2O3)0.0625,0.002238419,700,10.1945533,0.00E+00,,https://doi.org/10.1016/j.ssi.2012.02.045,H+E
(BaO)1(SnO2)0.875(Y2O3)0.0625,0.002447334,700,18.1724811,0.00E+00,,https://doi.org/10.1016/j.ssi.2012.02.045,H+E
(BaO)1(SnO2)0.875(Y2O3)0.0625,0.002943053,700,54.50064896,0.00E+00,,https://doi.org/10.1016/j.ssi.2012.02.045,H+E
(BaO)1(SnO2)0.875(Y2O3)0.0625,0.003217772,700,94.38335208,0.00E+00,,https://doi.org/10.1016/j.ssi.2012.02.045,H+E
(BaO)1(SnO2)0.875(Y2O3)0.0625,0.001395939,750,9.16945E-05,0.00E+00,,https://doi.org/10.1016/j.ssi.2012.02.045,H+E
(BaO)1(SnO2)0.875(Y2O3)0.0625,0.001428203,750,0.000952971,0.00E+00,,https://doi.org/10.1016/j.ssi.2012.02.045,H+E
(BaO)1(SnO2)0.875(Y2O3)0.0625,0.00142676,750,0.00990412,0.00E+00,,https://doi.org/10.1016/j.ssi.2012.02.045,H+E
(BaO)1(SnO2)0.875(Y2O3)0.0625,0.00162522,750,0.1,0.00E+00,,https://doi.org/10.1016/j.ssi.2012.02.045,H+E
(BaO)1(SnO2)0.875(Y2O3)0.0625,0.00226718,750,1.470158018,0.00E+00,,https://doi.org/10.1016/j.ssi.2012.02.045,H+E
(BaO)1(SnO2)0.875(Y2O3)0.0625,0.003126139,750,10.80121979,0.00E+00,,https://doi.org/10.1016/j.ssi.2012.02.045,H+E
(BaO)1(SnO2)0.875(Y2O3)0.0625,0.003438441,750,18.1724811,0.00E+00,,https://doi.org/10.1016/j.ssi.2012.02.045,H+E
(BaO)1(SnO2)0.875(Y2O3)0.0625,0.004110219,750,57.74392174,0.00E+00,,https://doi.org/10.1016/j.ssi.2012.02.045,H+E
(BaO)1(SnO2)0.875(Y2O3)0.0625,0.004493887,750,100,0.00E+00,,https://doi.org/10.1016/j.ssi.2012.02.045,H+E
(BaO)1(SnO2)0.875(Y2O3)0.0625,0.001949593,800,9.16945E-05,0.00E+00,,https://doi.org/10.1016/j.ssi.2012.02.045,H+E
(BaO)1(SnO2)0.875(Y2O3)0.0625,0.001959252,800,0.000980916,0.00E+00,,https://doi.org/10.1016/j.ssi.2012.02.045,H+E
(BaO)1(SnO2)0.875(Y2O3)0.0625,0.001980813,800,0.009621961,0.00E+00,,https://doi.org/10.1016/j.ssi.2012.02.045,H+E
(BaO)1(SnO2)0.875(Y2O3)0.0625,0.002242893,800,0.1,0.00E+00,,https://doi.org/10.1016/j.ssi.2012.02.045,H+E
(BaO)1(SnO2)0.875(Y2O3)0.0625,0.003110224,800,1.470158018,0.00E+00,,https://doi.org/10.1016/j.ssi.2012.02.045,H+E
(BaO)1(SnO2)0.875(Y2O3)0.0625,0.004237777,800,10.49350327,0.00E+00,,https://doi.org/10.1016/j.ssi.2012.02.045,H+E
(BaO)1(SnO2)0.875(Y2O3)0.0625,0.004661015,800,18.70537965,0.00E+00,,https://doi.org/10.1016/j.ssi.2012.02.045,H+E
(BaO)1(SnO2)0.875(Y2O3)0.0625,0.005538721,800,54.50064896,0.00E+00,,https://doi.org/10.1016/j.ssi.2012.02.045,H+E
(BaO)1(SnO2)0.875(Y2O3)0.0625,0.006128336,800,97.15109473,0.00E+00,,https://doi.org/10.1016/j.ssi.2012.02.045,H+E
(BaO)1(SnO2)0.875(Y2O3)0.0625,0.002627107,850,9.16945E-05,0.00E+00,,https://doi.org/10.1016/j.ssi.2012.02.045,H+E
(BaO)1(SnO2)0.875(Y2O3)0.0625,0.00262442,850,0.000980916,0.00E+00,,https://doi.org/10.1016/j.ssi.2012.02.045,H+E
(BaO)1(SnO2)0.875(Y2O3)0.0625,0.002653301,850,0.009621961,0.00E+00,,https://doi.org/10.1016/j.ssi.2012.02.045,H+E
(BaO)1(SnO2)0.875(Y2O3)0.0625,0.002986489,850,0.1,0.00E+00,,https://doi.org/10.1016/j.ssi.2012.02.045,H+E
(BaO)1(SnO2)0.875(Y2O3)0.0625,0.004067916,850,1.470158018,0.00E+00,,https://doi.org/10.1016/j.ssi.2012.02.045,H+E
(BaO)1(SnO2)0.875(Y2O3)0.0625,0.005609115,850,10.80121979,0.00E+00,,https://doi.org/10.1016/j.ssi.2012.02.045,H+E
(BaO)1(SnO2)0.875(Y2O3)0.0625,0.00613262,850,19.25390517,0.00E+00,,https://doi.org/10.1016/j.ssi.2012.02.045,H+E
(BaO)1(SnO2)0.875(Y2O3)0.0625,0.007244099,850,56.09885212,0.00E+00,,https://doi.org/10.1016/j.ssi.2012.02.045,H+E
(BaO)1(SnO2)0.875(Y2O3)0.0625,0.008015257,850,100,0.00E+00,,https://doi.org/10.1016/j.ssi.2012.02.045,H+E
(CaO)1(TiO2)0.95(MgO)0.05,0.044733729,1215.07945,2.00E+01,0,,https://doi.org/10.1016/0167-2738(92)90095-7,O+E
(CaO)1(TiO2)0.95(MgO)0.05,0.030148151,1105.566068,2.00E+01,0,,https://doi.org/10.1016/0167-2738(92)90095-7,O+E
(CaO)1(TiO2)0.95(MgO)0.05,0.026918941,1069.973291,2.00E+01,0,,https://doi.org/10.1016/0167-2738(92)90095-7,O+E
(CaO)1(TiO2)0.95(MgO)0.05,0.019758144,1007.560154,2.00E+01,0,,https://doi.org/10.1016/0167-2738(92)90095-7,O+E
(CaO)1(TiO2)0.95(MgO)0.05,0.013693416,928.6919749,2.00E+01,0,,https://doi.org/10.1016/0167-2738(92)90095-7,O+E
(CaO)1(TiO2)0.95(MgO)0.05,0.010335704,881.3088475,2.00E+01,0,,https://doi.org/10.1016/0167-2738(92)90095-7,O+E
(CaO)1(TiO2)0.95(MgO)0.05,0.008252338,845.4750533,2.00E+01,0,,https://doi.org/10.1016/0167-2738(92)90095-7,O+E
(CaO)1(TiO2)0.95(MgO)0.05,0.004974743,775.382888,2.00E+01,0,,https://doi.org/10.1016/0167-2738(92)90095-7,O+E
(CaO)1(TiO2)0.95(MgO)0.05,0.003550739,734.7858101,2.00E+01,0,,https://doi.org/10.1016/0167-2738(92)90095-7,O+E
(CaO)1(TiO2)0.95(MgO)0.05,0.001811579,671.7971902,2.00E+01,0,,https://doi.org/10.1016/0167-2738(92)90095-7,O+E
(CaO)1(TiO2)0.95(MgO)0.05,0.001222715,635.1681612,2.00E+01,0,,https://doi.org/10.1016/0167-2738(92)90095-7,O+E
(CaO)1(TiO2)0.95(MgO)0.05,0.000606271,579.0195324,2.00E+01,0,,https://doi.org/10.1016/0167-2738(92)90095-7,O+E
(CaO)1(TiO2)0.95(MgO)0.05,0.006573659,800,79.28142588,0,,https://doi.org/10.1016/0013-7480(71)90121-5,O
(CaO)1(TiO2)0.95(MgO)0.05,0.00575787,800,19.3986059,0,,https://doi.org/10.1016/0013-7480(71)90121-5,O
(CaO)1(TiO2)0.95(MgO)0.05,0.004825849,800,2.043921677,0,,https://doi.org/10.1016/0013-7480(71)90121-5,O
(CaO)1(TiO2)0.95(MgO)0.05,0.00437102,800,0.142179054,0,,https://doi.org/10.1016/0013-7480(71)90121-5,O
(CaO)1(TiO2)0.95(MgO)0.05,0.004092332,800,0.015081756,0,,https://doi.org/10.1016/0013-7480(71)90121-5,O
(CaO)1(TiO2)0.95(MgO)0.05,0.003546206,800,0.00090963,0,,https://doi.org/10.1016/0013-7480(71)90121-5,O
(CaO)1(TiO2)0.95(MgO)0.05,0.003397519,800,2.20675E-06,0,,https://doi.org/10.1016/0013-7480(71)90121-5,O
(CaO)1(TiO2)0.95(MgO)0.05,0.0033276,800,8.15816E-09,0,,https://doi.org/10.1016/0013-7480(71)90121-5,O
(CaO)1(TiO2)0.95(MgO)0.05,0.003519816,800,2.84517E-10,0,,https://doi.org/10.1016/0013-7480(71)90121-5,O
(CaO)1(TiO2)0.95(MgO)0.05,0.003409314,800,1.20905E-12,0,,https://doi.org/10.1016/0013-7480(71)90121-5,O
(CaO)1(TiO2)0.95(MgO)0.05,0.003815203,800,7.3035E-16,0,,https://doi.org/10.1016/0013-7480(71)90121-5,O
(CaO)1(TiO2)0.95(MgO)0.05,0.003991292,800,2.21292E-17,0,,https://doi.org/10.1016/0013-7480(71)90121-5,O
(CaO)1(TiO2)0.95(MgO)0.05,0.004461211,800,1.79341E-18,0,,https://doi.org/10.1016/0013-7480(71)90121-5,O
(CaO)1(TiO2)0.95(MgO)0.05,0.005448199,800,1.46127E-19,0,,https://doi.org/10.1016/0013-7480(71)90121-5,O
(CaO)1(TiO2)0.95(MgO)0.05,0.006654442,800,6.80181E-21,0,,https://doi.org/10.1016/0013-7480(71)90121-5,O
(BaO)1(ZrO2)0.95(YbO)0.05,6.72892E-05,598.7855189,0,1.9,,https://doi.org/10.1016/j.jallcom.2018.08.329,H
(BaO)1(ZrO2)0.95(YbO)0.05,4.82269E-05,574.8183753,0,1.9,,https://doi.org/10.1016/j.jallcom.2018.08.329,H
(BaO)1(ZrO2)0.95(YbO)0.05,3.54045E-05,550.7118732,0,1.9,,https://doi.org/10.1016/j.jallcom.2018.08.329,H
(BaO)1(ZrO2)0.95(YbO)0.05,2.66253E-05,525.2631931,0,1.9,,https://doi.org/10.1016/j.jallcom.2018.08.329,H
(BaO)1(ZrO2)0.95(YbO)0.05,1.95521E-05,500.087498,0,1.9,,https://doi.org/10.1016/j.jallcom.2018.08.329,H
(BaO)1(ZrO2)0.95(YbO)0.05,1.43594E-05,475.2780213,0,1.9,,https://doi.org/10.1016/j.jallcom.2018.08.329,H
(BaO)1(ZrO2)0.95(YbO)0.05,9.35969E-06,449.8186905,0,1.9,,https://doi.org/10.1016/j.jallcom.2018.08.329,H
(BaO)1(ZrO2)0.95(YbO)0.05,6.71424E-06,423.9962088,0,1.9,,https://doi.org/10.1016/j.jallcom.2018.08.329,H
(BaO)1(ZrO2)0.95(YbO)0.05,4.48345E-06,399.4817107,0,1.9,,https://doi.org/10.1016/j.jallcom.2018.08.329,H
(BaO)1(ZrO2)0.95(YbO)0.05,2.85479E-06,374.4332927,0,1.9,,https://doi.org/10.1016/j.jallcom.2018.08.329,H
(BaO)1(ZrO2)0.95(YbO)0.05,1.61332E-06,349.5579578,0,1.9,,https://doi.org/10.1016/j.jallcom.2018.08.329,H
(SrO)1(CeO2)0.95(YbO)0.05,0.016132152,999.3658052,0,0,,https://doi.org/10.1016/0167-2738(95)00051-7,H
(SrO)1(CeO2)0.95(YbO)0.05,0.012814224,953.0536398,0,0,,https://doi.org/10.1016/0167-2738(95)00051-7,H
(SrO)1(CeO2)0.95(YbO)0.05,0.011728184,936.8298677,0,0,,https://doi.org/10.1016/0167-2738(95)00051-7,H
(SrO)1(CeO2)0.95(YbO)0.05,0.0101787,903.4705882,0,0,,https://doi.org/10.1016/0167-2738(95)00051-7,H
(SrO)1(CeO2)0.95(YbO)0.05,0.007666822,840.0434783,0,0,,https://doi.org/10.1016/0167-2738(95)00051-7,H
(SrO)1(CeO2)0.95(YbO)0.05,0.006309573,809.9103215,0,0,,https://doi.org/10.1016/0167-2738(95)00051-7,H
(SrO)1(CeO2)0.95(YbO)0.05,0.004837438,744.4880763,0,0,,https://doi.org/10.1016/0167-2738(95)00051-7,H
(SrO)1(CeO2)0.95(YbO)0.05,0.003842513,708.595092,0,0,,https://doi.org/10.1016/0167-2738(95)00051-7,H
(SrO)1(CeO2)0.95(YbO)0.05,0.002945987,662.6725146,0,0,,https://doi.org/10.1016/0167-2738(95)00051-7,H
(SrO)1(CeO2)0.95(YbO)0.05,0.00206721,610.9779006,0,0,,https://doi.org/10.1016/0167-2738(95)00051-7,H
(BaO)1(CeO2)0.95(CaO)0.05,0.008138964,999.932543,0,0,,https://doi.org/10.1149/1.2095649,H
(BaO)1(CeO2)0.95(CaO)0.05,0.006420784,960.2662871,0,0,,https://doi.org/10.1149/1.2095649,H
(BaO)1(CeO2)0.95(CaO)0.05,0.005391472,920.3321573,0,0,,https://doi.org/10.1149/1.2095649,H
(BaO)1(CeO2)0.95(CaO)0.05,0.004527167,880.4789083,0,0,,https://doi.org/10.1149/1.2095649,H
(BaO)1(CeO2)0.95(CaO)0.05,0.003946444,838.6527721,0,0,,https://doi.org/10.1149/1.2095649,H
(BaO)1(CeO2)0.95(CaO)0.05,0.003397546,799.7651387,0,0,,https://doi.org/10.1149/1.2095649,H
(BaO)1(CeO2)0.95(CaO)0.05,0.002817504,759.6457509,0,0,,https://doi.org/10.1149/1.2095649,H
(BaO)1(CeO2)0.95(CaO)0.05,0.002250627,720.6498455,0,0,,https://doi.org/10.1149/1.2095649,H
(BaO)1(CeO2)0.95(CaO)0.05,0.001731739,677.8972497,0,0,,https://doi.org/10.1149/1.2095649,H
(BaO)1(CeO2)0.95(CaO)0.05,0.001349215,640.17729,0,0,,https://doi.org/10.1149/1.2095649,H
(BaO)1(CeO2)0.95(CaO)0.05,0.000975349,599.8056217,0,0,,https://doi.org/10.1149/1.2095649,H
(SrO)1(CeO2)0.95(YbO)0.05,0.016242398,994.130453,0,0,,https://doi.org/10.1016/0167-2738(96)00087-2,H
(SrO)1(CeO2)0.95(YbO)0.05,0.012636008,945.2304605,0,0,,https://doi.org/10.1016/0167-2738(96)00087-2,H
(SrO)1(CeO2)0.95(YbO)0.05,0.011551319,931.2832216,0,0,,https://doi.org/10.1016/0167-2738(96)00087-2,H
(SrO)1(CeO2)0.95(YbO)0.05,0.010191434,899.9757997,0,0,,https://doi.org/10.1016/0167-2738(96)00087-2,H
(SrO)1(CeO2)0.95(YbO)0.05,0.007381989,838.0652467,0,0,,https://doi.org/10.1016/0167-2738(96)00087-2,H
(SrO)1(CeO2)0.95(YbO)0.05,0.00639744,807.6530758,0,0,,https://doi.org/10.1016/0167-2738(96)00087-2,H
(SrO)1(CeO2)0.95(YbO)0.05,0.004806817,741.7021865,0,0,,https://doi.org/10.1016/0167-2738(96)00087-2,H
(SrO)1(CeO2)0.95(YbO)0.05,0.003673216,707.0510557,0,0,,https://doi.org/10.1016/0167-2738(96)00087-2,H
(SrO)1(CeO2)0.95(YbO)0.05,0.002860077,660.7023176,0,0,,https://doi.org/10.1016/0167-2738(96)00087-2,H
(SrO)1(CeO2)0.95(YbO)0.05,0.001999677,608.579091,0,0,,https://doi.org/10.1016/0167-2738(96)00087-2,H
(SrO)1(TiO2)0.9(Al2O3)0.05,0.035833165,1205.778754,2.00E+01,0,,https://doi.org/10.1016/0167-2738(92)90095-7,O+E
(SrO)1(TiO2)0.9(Al2O3)0.05,0.02490044,1138.9613,2.00E+01,0,,https://doi.org/10.1016/0167-2738(92)90095-7,O+E
(SrO)1(TiO2)0.9(Al2O3)0.05,0.019881262,1085.714269,2.00E+01,0,,https://doi.org/10.1016/0167-2738(92)90095-7,O+E
(SrO)1(TiO2)0.9(Al2O3)0.05,0.015883193,1043.712585,2.00E+01,0,,https://doi.org/10.1016/0167-2738(92)90095-7,O+E
(SrO)1(TiO2)0.9(Al2O3)0.05,0.011999178,997.3098003,2.00E+01,0,,https://doi.org/10.1016/0167-2738(92)90095-7,O+E
(SrO)1(TiO2)0.9(Al2O3)0.05,0.007889511,947.7065133,2.00E+01,0,,https://doi.org/10.1016/0167-2738(92)90095-7,O+E
(SrO)1(TiO2)0.9(Al2O3)0.05,0.006481627,916.707908,2.00E+01,0,,https://doi.org/10.1016/0167-2738(92)90095-7,O+E
(SrO)1(TiO2)0.9(Al2O3)0.05,0.005479173,895.9389204,2.00E+01,0,,https://doi.org/10.1016/0167-2738(92)90095-7,O+E
(SrO)1(TiO2)0.9(Al2O3)0.05,0.003914249,853.7806964,2.00E+01,0,,https://doi.org/10.1016/0167-2738(92)90095-7,O+E
(SrO)1(TiO2)0.9(Al2O3)0.05,0.002797116,817.0933545,2.00E+01,0,,https://doi.org/10.1016/0167-2738(92)90095-7,O+E
(SrO)1(TiO2)0.9(Al2O3)0.05,0.002430102,797.1685344,2.00E+01,0,,https://doi.org/10.1016/0167-2738(92)90095-7,O+E
(SrO)1(TiO2)0.9(Al2O3)0.05,0.001141112,726.4334623,2.00E+01,0,,https://doi.org/10.1016/0167-2738(92)90095-7,O+E
(SrO)1(TiO2)0.9(Al2O3)0.05,0.000634059,679.7182602,2.00E+01,0,,https://doi.org/10.1016/0167-2738(92)90095-7,O+E
(SrO)1(TiO2)0.9(Al2O3)0.05,0.000404565,637.1485369,2.00E+01,0,,https://doi.org/10.1016/0167-2738(92)90095-7,O+E
(SrO)1(TiO2)0.9(Al2O3)0.05,0.000201015,591.8174972,2.00E+01,0,,https://doi.org/10.1016/0167-2738(92)90095-7,O+E
(CaO)1(TiO2)0.9(Fe2O3)0.05,0.031781495,886.1937434,2.00E+01,0,,https://doi.org/10.1016/0167-2738(92)90095-7,O+E
(CaO)1(TiO2)0.9(Fe2O3)0.05,0.012791709,699.821367,2.00E+01,0,,https://doi.org/10.1016/0167-2738(92)90095-7,O+E
(CaO)1(TiO2)0.9(Fe2O3)0.05,0.007055353,608.315146,2.00E+01,0,,https://doi.org/10.1016/0167-2738(92)90095-7,O+E
(CaO)1(TiO2)0.9(Fe2O3)0.05,0.003154675,510.8153623,2.00E+01,0,,https://doi.org/10.1016/0167-2738(92)90095-7,O+E
(CaO)1(TiO2)0.9(Fe2O3)0.05,0.001361356,422.5637832,2.00E+01,0,,https://doi.org/10.1016/0167-2738(92)90095-7,O+E
(CaO)1(TiO2)0.9(Fe2O3)0.05,0.000676141,368.7830542,2.00E+01,0,,https://doi.org/10.1016/0167-2738(92)90095-7,O+E
(CaO)1(TiO2)0.9(Fe2O3)0.05,0.000476536,345.5565677,2.00E+01,0,,https://doi.org/10.1016/0167-2738(92)90095-7,O+E
(SrO)1(TiO2)0.9(Al2O3)0.05,0.003346013,800,87.52521401,0,,https://doi.org/10.1016/0013-7480(71)90121-5,O
(SrO)1(TiO2)0.9(Al2O3)0.05,0.00245505,800,21.18635,0,,https://doi.org/10.1016/0013-7480(71)90121-5,O
(SrO)1(TiO2)0.9(Al2O3)0.05,0.001630898,800,1.913476342,0,,https://doi.org/10.1016/0013-7480(71)90121-5,O
(SrO)1(TiO2)0.9(Al2O3)0.05,0.001145068,800,0.173400895,0,,https://doi.org/10.1016/0013-7480(71)90121-5,O
(SrO)1(TiO2)0.9(Al2O3)0.05,0.000596393,800,0.005792459,0,,https://doi.org/10.1016/0013-7480(71)90121-5,O
(SrO)1(TiO2)0.9(Al2O3)0.05,0.000447685,800,8.54246E-05,0,,https://doi.org/10.1016/0013-7480(71)90121-5,O
(SrO)1(TiO2)0.9(Al2O3)0.05,0.000410019,800,5.1696E-06,0,,https://doi.org/10.1016/0013-7480(71)90121-5,O