Composition,Conductivity (S/cm),Temperature (degC),PO2 (%),PH2O (%),Grainsize,Ref,Carrier Type
(La2O3)0.375(SrO)0.25(Cr2O3)0.25(Mn2O3)0.25,0.526358441,690.781106,0,3,,https://doi.org/10.1038/nmat871,O+E
(La2O3)0.375(SrO)0.25(Cr2O3)0.25(Mn2O3)0.25,0.499338849,677.8776601,0,3,,https://doi.org/10.1038/nmat871,O+E
(La2O3)0.375(SrO)0.25(Cr2O3)0.25(Mn2O3)0.25,0.463209046,670.654396,0,3,,https://doi.org/10.1038/nmat871,O+E
(La2O3)0.375(SrO)0.25(Cr2O3)0.25(Mn2O3)0.25,0.432095114,658.2807905,0,3,,https://doi.org/10.1038/nmat871,O+E
(La2O3)0.375(SrO)0.25(Cr2O3)0.25(Mn2O3)0.25,0.407458174,651.3511055,0,3,,https://doi.org/10.1038/nmat871,O+E
(La2O3)0.375(SrO)0.25(Cr2O3)0.25(Mn2O3)0.25,0.382081342,634.4739555,0,3,,https://doi.org/10.1038/nmat871,O+E
(La2O3)0.375(SrO)0.25(Cr2O3)0.25(Mn2O3)0.25,0.359571979,629.5352214,0,3,,https://doi.org/10.1038/nmat871,O+E
(La2O3)0.375(SrO)0.25(Cr2O3)0.25(Mn2O3)0.25,0.324901027,616.6084833,0,3,,https://doi.org/10.1038/nmat871,O+E
(La2O3)0.375(SrO)0.25(Cr2O3)0.25(Mn2O3)0.25,0.31193959,608.7175859,0,3,,https://doi.org/10.1038/nmat871,O+E
(La2O3)0.375(SrO)0.25(Cr2O3)0.25(Mn2O3)0.25,0.308992796,602.5110796,0,3,,https://doi.org/10.1038/nmat871,O+E
(La2O3)0.375(SrO)0.25(Cr2O3)0.25(Mn2O3)0.25,0.291244992,596.3837808,0,3,,https://doi.org/10.1038/nmat871,O+E
(La2O3)0.375(SrO)0.25(Cr2O3)0.25(Mn2O3)0.25,0.269527457,591.8424257,0,3,,https://doi.org/10.1038/nmat871,O+E
(La2O3)0.375(SrO)0.25(Cr2O3)0.25(Mn2O3)0.25,0.256217416,578.5131388,0,3,,https://doi.org/10.1038/nmat871,O+E
(La2O3)0.375(SrO)0.25(Cr2O3)0.25(Mn2O3)0.25,0.233193564,574.156097,0,3,,https://doi.org/10.1038/nmat871,O+E
(La2O3)0.375(SrO)0.25(Cr2O3)0.25(Mn2O3)0.25,0.214756657,559.958502,0,3,,https://doi.org/10.1038/nmat871,O+E
(La2O3)0.375(SrO)0.25(Cr2O3)0.25(Mn2O3)0.25,0.208810591,555.795677,0,3,,https://doi.org/10.1038/nmat871,O+E
(La2O3)0.375(SrO)0.25(Cr2O3)0.25(Mn2O3)0.25,0.18597511,542.2018847,0,3,,https://doi.org/10.1038/nmat871,O+E
(La2O3)0.375(SrO)0.25(Cr2O3)0.25(Mn2O3)0.25,0.17754942,539.5325013,0,3,,https://doi.org/10.1038/nmat871,O+E
(La2O3)0.375(SrO)0.25(Cr2O3)0.25(Mn2O3)0.25,0.163136013,527.7559136,0,3,,https://doi.org/10.1038/nmat871,O+E
(La2O3)0.375(SrO)0.25(Cr2O3)0.25(Mn2O3)0.25,0.153178946,525.1801493,0,3,,https://doi.org/10.1038/nmat871,O+E
(La2O3)0.375(SrO)0.25(Cr2O3)0.25(Mn2O3)0.25,0.143510399,511.3260286,0,3,,https://doi.org/10.1038/nmat871,O+E
(La2O3)0.375(SrO)0.25(Cr2O3)0.25(Mn2O3)0.25,0.13452949,510.0914886,0,3,,https://doi.org/10.1038/nmat871,O+E
(La2O3)0.375(SrO)0.25(Cr2O3)0.25(Mn2O3)0.25,0.123736209,497.9446385,0,3,,https://doi.org/10.1038/nmat871,O+E
(La2O3)0.375(SrO)0.25(Cr2O3)0.25(Mn2O3)0.25,0.120080003,495.5627109,0,3,,https://doi.org/10.1038/nmat871,O+E
(La2O3)0.375(SrO)0.25(Cr2O3)0.25(Mn2O3)0.25,0.11058219,482.7093844,0,3,,https://doi.org/10.1038/nmat871,O+E
(La2O3)0.375(SrO)0.25(Cr2O3)0.25(Mn2O3)0.25,0.103655981,481.5632211,0,3,,https://doi.org/10.1038/nmat871,O+E
(La2O3)0.375(SrO)0.25(Cr2O3)0.25(Mn2O3)0.25,0.095428158,469.1701054,0,3,,https://doi.org/10.1038/nmat871,O+E
(La2O3)0.375(SrO)0.25(Cr2O3)0.25(Mn2O3)0.25,0.090941879,468.0646134,0,3,,https://doi.org/10.1038/nmat871,O+E
(La2O3)0.375(SrO)0.25(Cr2O3)0.25(Mn2O3)0.25,0.080737201,458.2507313,0,3,,https://doi.org/10.1038/nmat871,O+E
(La2O3)0.375(SrO)0.25(Cr2O3)0.25(Mn2O3)0.25,0.079762294,455.0351787,0,3,,https://doi.org/10.1038/nmat871,O+E
(La2O3)0.375(SrO)0.25(Cr2O3)0.25(Mn2O3)0.25,0.081093797,455.0351787,0,3,,https://doi.org/10.1038/nmat871,O+E
(La2O3)0.375(SrO)0.25(Cr2O3)0.25(Mn2O3)0.25,0.078569266,453.9713646,0,3,,https://doi.org/10.1038/nmat871,O+E
(La2O3)0.375(SrO)0.25(Cr2O3)0.25(Mn2O3)0.25,0.068490943,445.5663165,0,3,,https://doi.org/10.1038/nmat871,O+E
(La2O3)0.375(SrO)0.25(Cr2O3)0.25(Mn2O3)0.25,0.05995355,434.3186258,0,3,,https://doi.org/10.1038/nmat871,O+E
(La2O3)0.375(SrO)0.25(Cr2O3)0.25(Mn2O3)0.25,0.060039211,433.3094624,0,3,,https://doi.org/10.1038/nmat871,O+E
(La2O3)0.375(SrO)0.25(Cr2O3)0.25(Mn2O3)0.25,0.051606006,423.4176277,0,3,,https://doi.org/10.1038/nmat871,O+E
(La2O3)0.375(SrO)0.25(Cr2O3)0.25(Mn2O3)0.25,0.051823079,420.5005132,0,3,,https://doi.org/10.1038/nmat871,O+E
(La2O3)0.375(SrO)0.25(Cr2O3)0.25(Mn2O3)0.25,0.045214078,411.8986692,0,3,,https://doi.org/10.1038/nmat871,O+E
(La2O3)0.375(SrO)0.25(Cr2O3)0.25(Mn2O3)0.25,0.044104115,406.2832203,0,3,,https://doi.org/10.1038/nmat871,O+E
(La2O3)0.375(SrO)0.25(Cr2O3)0.25(Mn2O3)0.25,0.040427438,398.0328538,0,3,,https://doi.org/10.1038/nmat871,O+E
(La2O3)0.375(SrO)0.25(Cr2O3)0.25(Mn2O3)0.25,0.03525755,389.9760997,0,3,,https://doi.org/10.1038/nmat871,O+E
(La2O3)0.375(SrO)0.25(Cr2O3)0.25(Mn2O3)0.25,0.035351517,388.2138564,0,3,,https://doi.org/10.1038/nmat871,O+E
(La2O3)0.375(SrO)0.25(Cr2O3)0.25(Mn2O3)0.25,0.030906493,378.6738242,0,3,,https://doi.org/10.1038/nmat871,O+E
(La2O3)0.375(SrO)0.25(Cr2O3)0.25(Mn2O3)0.25,0.031462861,377.8213365,0,3,,https://doi.org/10.1038/nmat871,O+E
(La2O3)0.375(SrO)0.25(Cr2O3)0.25(Mn2O3)0.25,0.027119225,366.9303756,0,3,,https://doi.org/10.1038/nmat871,O+E
(La2O3)0.375(SrO)0.25(Cr2O3)0.25(Mn2O3)0.25,0.024433261,359.5990966,0,3,,https://doi.org/10.1038/nmat871,O+E
(La2O3)0.375(SrO)0.25(Cr2O3)0.25(Mn2O3)0.25,0.023279481,358.7957531,0,3,,https://doi.org/10.1038/nmat871,O+E
(La2O3)0.375(SrO)0.25(Cr2O3)0.25(Mn2O3)0.25,0.021785115,348.5272167,0,3,,https://doi.org/10.1038/nmat871,O+E
(La2O3)0.375(SrO)0.25(Cr2O3)0.25(Mn2O3)0.25,0.021427912,348.5272167,0,3,,https://doi.org/10.1038/nmat871,O+E
(La2O3)0.375(SrO)0.25(Cr2O3)0.25(Mn2O3)0.25,0.02075653,347.747877,0,3,,https://doi.org/10.1038/nmat871,O+E
(La2O3)0.375(SrO)0.25(Cr2O3)0.25(Mn2O3)0.25,0.018478123,337.8325036,0,3,,https://doi.org/10.1038/nmat871,O+E
(La2O3)0.375(SrO)0.25(Cr2O3)0.25(Mn2O3)0.25,0.019099758,337.8325036,0,3,,https://doi.org/10.1038/nmat871,O+E
(La2O3)0.375(SrO)0.25(Cr2O3)0.25(Mn2O3)0.25,0.016619019,331.8874909,0,3,,https://doi.org/10.1038/nmat871,O+E
(La2O3)0.375(SrO)0.25(Cr2O3)0.25(Mn2O3)0.25,0.015592753,330.4165445,0,3,,https://doi.org/10.1038/nmat871,O+E
(La2O3)0.375(SrO)0.25(Cr2O3)0.25(Mn2O3)0.25,0.01364747,321.0429374,0,3,,https://doi.org/10.1038/nmat871,O+E
(La2O3)0.35625(SrO)0.2375(Mn2O3)0.25(Cr2O3)0.25,6.363636364,950,1E-16,0,,https://doi.org/10.1016/j.ssi.2013.01.005,E
(La2O3)0.35625(SrO)0.2375(Mn2O3)0.25(Cr2O3)0.25,6.454545455,950,2.89427E-16,0,,https://doi.org/10.1016/j.ssi.2013.01.005,E
(La2O3)0.35625(SrO)0.2375(Mn2O3)0.25(Cr2O3)0.25,6.727272727,950,8.37678E-16,0,,https://doi.org/10.1016/j.ssi.2013.01.005,E
(La2O3)0.35625(SrO)0.2375(Mn2O3)0.25(Cr2O3)0.25,6.818181818,950,3.45511E-15,0,,https://doi.org/10.1016/j.ssi.2013.01.005,E
(La2O3)0.35625(SrO)0.2375(Mn2O3)0.25(Cr2O3)0.25,7,950,1.4251E-14,0,,https://doi.org/10.1016/j.ssi.2013.01.005,E
(La2O3)0.35625(SrO)0.2375(Mn2O3)0.25(Cr2O3)0.25,7.363636364,950,2.89427E-14,0,,https://doi.org/10.1016/j.ssi.2013.01.005,E
(La2O3)0.35625(SrO)0.2375(Mn2O3)0.25(Cr2O3)0.25,7.727272727,950,1.19378E-13,0,,https://doi.org/10.1016/j.ssi.2013.01.005,E
(La2O3)0.35625(SrO)0.2375(Mn2O3)0.25(Cr2O3)0.25,8.181818182,950,4.92388E-13,0,,https://doi.org/10.1016/j.ssi.2013.01.005,E
(La2O3)0.35625(SrO)0.2375(Mn2O3)0.25(Cr2O3)0.25,9.272727273,950,4.12463E-12,0,,https://doi.org/10.1016/j.ssi.2013.01.005,E
(La2O3)0.35625(SrO)0.2375(Mn2O3)0.25(Cr2O3)0.25,11.54545455,950,1.4251E-10,0,,https://doi.org/10.1016/j.ssi.2013.01.005,E
(La2O3)0.35625(SrO)0.2375(Mn2O3)0.25(Cr2O3)0.25,13,950,8.37678E-10,0,,https://doi.org/10.1016/j.ssi.2013.01.005,E
(La2O3)0.35625(SrO)0.2375(Mn2O3)0.25(Cr2O3)0.25,13.09090909,950,4.92388E-09,0,,https://doi.org/10.1016/j.ssi.2013.01.005,E
(La2O3)0.35625(SrO)0.2375(Mn2O3)0.25(Cr2O3)0.25,13.09090909,950,4.12463E-08,0,,https://doi.org/10.1016/j.ssi.2013.01.005,E
(La2O3)0.35625(SrO)0.2375(Mn2O3)0.25(Cr2O3)0.25,13.18181818,950,3.45511E-07,0,,https://doi.org/10.1016/j.ssi.2013.01.005,E
(La2O3)0.35625(SrO)0.2375(Mn2O3)0.25(Cr2O3)0.25,13.09090909,950,2.89427E-06,0,,https://doi.org/10.1016/j.ssi.2013.01.005,E
(La2O3)0.35625(SrO)0.2375(Mn2O3)0.25(Cr2O3)0.25,13.09090909,950,1.19378E-05,0,,https://doi.org/10.1016/j.ssi.2013.01.005,E
(La2O3)0.35625(SrO)0.2375(Mn2O3)0.25(Cr2O3)0.25,13.09090909,950,0.001193777,0,,https://doi.org/10.1016/j.ssi.2013.01.005,E
(La2O3)0.35625(SrO)0.2375(Mn2O3)0.25(Cr2O3)0.25,13.09090909,950,0.007017038,0,,https://doi.org/10.1016/j.ssi.2013.01.005,E
(La2O3)0.35625(SrO)0.2375(Mn2O3)0.25(Cr2O3)0.25,13.09090909,950,0.083767764,0,,https://doi.org/10.1016/j.ssi.2013.01.005,E
(La2O3)0.35625(SrO)0.2375(Mn2O3)0.25(Cr2O3)0.25,13.09090909,950,0.345510729,0,,https://doi.org/10.1016/j.ssi.2013.01.005,E
(La2O3)0.35625(SrO)0.2375(Mn2O3)0.25(Cr2O3)0.25,13.09090909,950,4.124626383,0,,https://doi.org/10.1016/j.ssi.2013.01.005,E
(La2O3)0.35625(SrO)0.2375(Mn2O3)0.25(Cr2O3)0.25,13.09090909,950,49.23882632,0,,https://doi.org/10.1016/j.ssi.2013.01.005,E
(La2O3)0.4(SrO)0.2(Cr2O3)0.25(Mn2O3)0.25,26.82366447,855.8847747,21,0,,https://doi.org/10.1016/j.ssi.2006.02.025,O+E
(La2O3)0.4(SrO)0.2(Cr2O3)0.25(Mn2O3)0.25,24.68797773,816.7282218,21,0,,https://doi.org/10.1016/j.ssi.2006.02.025,O+E
(La2O3)0.4(SrO)0.2(Cr2O3)0.25(Mn2O3)0.25,23.08156946,780.1969794,21,0,,https://doi.org/10.1016/j.ssi.2006.02.025,O+E
(La2O3)0.4(SrO)0.2(Cr2O3)0.25(Mn2O3)0.25,21.55543623,746.0355847,21,0,,https://doi.org/10.1016/j.ssi.2006.02.025,O+E
(La2O3)0.4(SrO)0.2(Cr2O3)0.25(Mn2O3)0.25,20.10923194,714.0206781,21,0,,https://doi.org/10.1016/j.ssi.2006.02.025,O+E
(La2O3)0.4(SrO)0.2(Cr2O3)0.25(Mn2O3)0.25,19.06077327,683.956114,21,0,,https://doi.org/10.1016/j.ssi.2006.02.025,O+E
(La2O3)0.4(SrO)0.2(Cr2O3)0.25(Mn2O3)0.25,18.04986853,655.6775632,21,0,,https://doi.org/10.1016/j.ssi.2006.02.025,O+E
(La2O3)0.4(SrO)0.2(Cr2O3)0.25(Mn2O3)0.25,17.07797702,629.0141977,21,0,,https://doi.org/10.1016/j.ssi.2006.02.025,O+E
(La2O3)0.4(SrO)0.2(Cr2O3)0.25(Mn2O3)0.25,16.42026776,603.8391702,21,0,,https://doi.org/10.1016/j.ssi.2006.02.025,O+E
(La2O3)0.4(SrO)0.2(Cr2O3)0.25(Mn2O3)0.25,15.25128592,580.0312465,21,0,,https://doi.org/10.1016/j.ssi.2006.02.025,O+E
(La2O3)0.4(SrO)0.2(Cr2O3)0.25(Mn2O3)0.25,14.39633601,557.4820118,21,0,,https://doi.org/10.1016/j.ssi.2006.02.025,O+E
(La2O3)0.4(SrO)0.2(Cr2O3)0.25(Mn2O3)0.25,13.81126587,536.094219,21,0,,https://doi.org/10.1016/j.ssi.2006.02.025,O+E
(La2O3)0.4(SrO)0.2(Cr2O3)0.25(Mn2O3)0.25,13.01928943,515.7803878,21,0,,https://doi.org/10.1016/j.ssi.2006.02.025,O+E
(La2O3)0.4(SrO)0.2(Cr2O3)0.25(Mn2O3)0.25,12.47390598,496.4616077,21,0,,https://doi.org/10.1016/j.ssi.2006.02.025,O+E
(La2O3)0.4(SrO)0.2(Cr2O3)0.25(Mn2O3)0.25,11.9443192,478.0665145,21,0,,https://doi.org/10.1016/j.ssi.2006.02.025,O+E
(La2O3)0.4(SrO)0.2(Cr2O3)0.25(Mn2O3)0.25,11.43056544,460.5304085,21,0,,https://doi.org/10.1016/j.ssi.2006.02.025,O+E
(La2O3)0.4(SrO)0.2(Cr2O3)0.25(Mn2O3)0.25,10.93305554,443.794495,21,0,,https://doi.org/10.1016/j.ssi.2006.02.025,O+E
(La2O3)0.4(SrO)0.2(Cr2O3)0.25(Mn2O3)0.25,10.27653351,427.8101365,21,0,,https://doi.org/10.1016/j.ssi.2006.02.025,O+E
(La2O3)0.4(SrO)0.2(Cr2O3)0.25(Mn2O3)0.25,9.986504441,412.5184233,21,0,,https://doi.org/10.1016/j.ssi.2006.02.025,O+E
(La2O3)0.4(SrO)0.2(Cr2O3)0.25(Mn2O3)0.25,9.537486937,397.8797918,21,0,,https://doi.org/10.1016/j.ssi.2006.02.025,O+E
(La2O3)0.4(SrO)0.2(Cr2O3)0.25(Mn2O3)0.25,8.952021087,383.8532787,21,0,,https://doi.org/10.1016/j.ssi.2006.02.025,O+E
(La2O3)0.4(SrO)0.2(Cr2O3)0.25(Mn2O3)0.25,8.541967786,370.4012765,21,0,,https://doi.org/10.1016/j.ssi.2006.02.025,O+E
(La2O3)0.4(SrO)0.2(Cr2O3)0.25(Mn2O3)0.25,8.147197307,357.4891966,21,0,,https://doi.org/10.1016/j.ssi.2006.02.025,O+E
(La2O3)0.4(SrO)0.2(Cr2O3)0.25(Mn2O3)0.25,7.767619393,345.0851721,21,0,,https://doi.org/10.1016/j.ssi.2006.02.025,O+E
(La2O3)0.4(SrO)0.2(Cr2O3)0.25(Mn2O3)0.25,7.402859609,333.1597958,21,0,,https://doi.org/10.1016/j.ssi.2006.02.025,O+E
(La2O3)0.4(SrO)0.2(Cr2O3)0.25(Mn2O3)0.25,7.052531674,321.6858869,21,0,,https://doi.org/10.1016/j.ssi.2006.02.025,O+E
(La2O3)0.4(SrO)0.2(Cr2O3)0.25(Mn2O3)0.25,6.830846369,310.6382843,21,0,,https://doi.org/10.1016/j.ssi.2006.02.025,O+E
(La2O3)0.4(SrO)0.2(Cr2O3)0.25(Mn2O3)0.25,6.394097782,299.9936627,21,0,,https://doi.org/10.1016/j.ssi.2006.02.025,O+E
(La2O3)0.4(SrO)0.2(Cr2O3)0.25(Mn2O3)0.25,6.085225474,289.7335344,21,0,,https://doi.org/10.1016/j.ssi.2006.02.025,O+E
(La2O3)0.4(SrO)0.2(Cr2O3)0.25(Mn2O3)0.25,5.988356868,279.8313256,21,0,,https://doi.org/10.1016/j.ssi.2006.02.025,O+E
(La2O3)0.4(SrO)0.2(Cr2O3)0.25(Mn2O3)0.25,5.695524295,270.2715815,21,0,,https://doi.org/10.1016/j.ssi.2006.02.025,O+E
(La2O3)0.4(SrO)0.2(Cr2O3)0.25(Mn2O3)0.25,5.324640399,261.0368379,21,0,,https://doi.org/10.1016/j.ssi.2006.02.025,O+E
(La2O3)0.4(SrO)0.2(Cr2O3)0.25(Mn2O3)0.25,5.061235964,252.1107984,21,0,,https://doi.org/10.1016/j.ssi.2006.02.025,O+E
(La2O3)0.4(SrO)0.2(Cr2O3)0.25(Mn2O3)0.25,4.97485809,243.4782382,21,0,,https://doi.org/10.1016/j.ssi.2006.02.025,O+E
(La2O3)0.4(SrO)0.2(Cr2O3)0.25(Mn2O3)0.25,4.647003867,235.1249174,21,0,,https://doi.org/10.1016/j.ssi.2006.02.025,O+E
(La2O3)0.4(SrO)0.2(Cr2O3)0.25(Mn2O3)0.25,4.413583298,227.0375028,21,0,,https://doi.org/10.1016/j.ssi.2006.02.025,O+E
(La2O3)0.4(SrO)0.2(Cr2O3)0.25(Mn2O3)0.25,4.262209799,219.2034966,21,0,,https://doi.org/10.1016/j.ssi.2006.02.025,O+E
(La2O3)0.4(SrO)0.2(Cr2O3)0.25(Mn2O3)0.25,4.115017708,211.6111722,21,0,,https://doi.org/10.1016/j.ssi.2006.02.025,O+E
(La2O3)0.4(SrO)0.2(Cr2O3)0.25(Mn2O3)0.25,3.839993033,204.2495156,21,0,,https://doi.org/10.1016/j.ssi.2006.02.025,O+E
(La2O3)0.4(SrO)0.2(Cr2O3)0.25(Mn2O3)0.25,3.705627009,197.1103819,21,0,,https://doi.org/10.1016/j.ssi.2006.02.025,O+E
(La2O3)0.4(SrO)0.2(Cr2O3)0.25(Mn2O3)0.25,3.515301303,190.1795423,21,0,,https://doi.org/10.1016/j.ssi.2006.02.025,O+E
(La2O3)0.4(SrO)0.2(Cr2O3)0.25(Mn2O3)0.25,3.39081608,183.4500963,21,0,,https://doi.org/10.1016/j.ssi.2006.02.025,O+E
(La2O3)0.4(SrO)0.2(Cr2O3)0.25(Mn2O3)0.25,3.161399783,176.9133917,21,0,,https://doi.org/10.1016/j.ssi.2006.02.025,O+E
(La2O3)0.4(SrO)0.2(Cr2O3)0.25(Mn2O3)0.25,2.997096746,170.5612647,21,0,,https://doi.org/10.1016/j.ssi.2006.02.025,O+E
(La2O3)0.4(SrO)0.2(Cr2O3)0.25(Mn2O3)0.25,2.889183353,164.3860063,21,0,,https://doi.org/10.1016/j.ssi.2006.02.025,O+E
(La2O3)0.4(SrO)0.2(Cr2O3)0.25(Mn2O3)0.25,2.784643508,158.3803308,21,0,,https://doi.org/10.1016/j.ssi.2006.02.025,O+E
(La2O3)0.4(SrO)0.2(Cr2O3)0.25(Mn2O3)0.25,2.63838578,152.5373473,21,0,,https://doi.org/10.1016/j.ssi.2006.02.025,O+E
(La2O3)0.4(SrO)0.2(Cr2O3)0.25(Mn2O3)0.25,2.499376312,146.8505332,21,0,,https://doi.org/10.1016/j.ssi.2006.02.025,O+E
(La2O3)0.4(SrO)0.2(Cr2O3)0.25(Mn2O3)0.25,2.367244355,141.3137101,21,0,,https://doi.org/10.1016/j.ssi.2006.02.025,O+E
(La2O3)0.4(SrO)0.2(Cr2O3)0.25(Mn2O3)0.25,2.279914553,135.921021,21,0,,https://doi.org/10.1016/j.ssi.2006.02.025,O+E
(La2O3)0.4(SrO)0.2(Cr2O3)0.25(Mn2O3)0.25,2.195456378,130.6669102,21,0,,https://doi.org/10.1016/j.ssi.2006.02.025,O+E
(La2O3)0.4(SrO)0.2(Cr2O3)0.25(Mn2O3)0.25,2.078326141,125.5476922,21,0,,https://doi.org/10.1016/j.ssi.2006.02.025,O+E
(La2O3)0.4(SrO)0.2(Cr2O3)0.25(Mn2O3)0.25,1.967155936,120.555141,21,0,,https://doi.org/10.1016/j.ssi.2006.02.025,O+E
(La2O3)0.4(SrO)0.2(Cr2O3)0.25(Mn2O3)0.25,1.893350215,115.6861243,21,0,,https://doi.org/10.1016/j.ssi.2006.02.025,O+E
(La2O3)0.4(SrO)0.2(Cr2O3)0.25(Mn2O3)0.25,1.791501032,110.936113,21,0,,https://doi.org/10.1016/j.ssi.2006.02.025,O+E
(La2O3)0.4(SrO)0.2(Cr2O3)0.25(Mn2O3)0.25,1.694894421,106.3007969,21,0,,https://doi.org/10.1016/j.ssi.2006.02.025,O+E
(La2O3)0.4(SrO)0.2(Cr2O3)0.25(Mn2O3)0.25,1.603247558,101.7760713,21,0,,https://doi.org/10.1016/j.ssi.2006.02.025,O+E
(La2O3)0.4(SrO)0.2(Cr2O3)0.25(Mn2O3)0.25,1.542199782,97.3580251,21,0,,https://doi.org/10.1016/j.ssi.2006.02.025,O+E
(La2O3)0.4(SrO)0.2(Cr2O3)0.25(Mn2O3)0.25,1.483255567,93.04292951,21,0,,https://doi.org/10.1016/j.ssi.2006.02.025,O+E
(La2O3)0.4(SrO)0.2(Cr2O3)0.25(Mn2O3)0.25,1.402467485,88.8272275,21,0,,https://doi.org/10.1016/j.ssi.2006.02.025,O+E
(La2O3)0.4(SrO)0.2(Cr2O3)0.25(Mn2O3)0.25,1.325917032,84.70752402,21,0,,https://doi.org/10.1016/j.ssi.2006.02.025,O+E
(La2O3)0.4(SrO)0.2(Cr2O3)0.25(Mn2O3)0.25,1.253369869,80.68057692,21,0,,https://doi.org/10.1016/j.ssi.2006.02.025,O+E
(La2O3)0.4(SrO)0.2(Cr2O3)0.25(Mn2O3)0.25,1.225362941,76.74451163,21,0,,https://doi.org/10.1016/j.ssi.2006.02.025,O+E
(La2O3)0.4(SrO)0.2(Cr2O3)0.25(Mn2O3)0.25,1.158038862,72.89389359,21,0,,https://doi.org/10.1016/j.ssi.2006.02.025,O+E
(La2O3)0.4(SrO)0.2(Cr2O3)0.25(Mn2O3)0.25,1.112920425,69.12714129,21,0,,https://doi.org/10.1016/j.ssi.2006.02.025,O+E
(La2O3)0.4(SrO)0.2(Cr2O3)0.25(Mn2O3)0.25,1.033900572,65.44154438,21,0,,https://doi.org/10.1016/j.ssi.2006.02.025,O+E
(La2O3)0.4(SrO)0.2(Cr2O3)0.25(Mn2O3)0.25,1.010316447,61.83450804,21,0,,https://doi.org/10.1016/j.ssi.2006.02.025,O+E
(La2O3)0.4(SrO)0.2(Cr2O3)0.25(Mn2O3)0.25,0.938356803,58.30354694,21,0,,https://doi.org/10.1016/j.ssi.2006.02.025,O+E
(La2O3)0.4(SrO)0.2(Cr2O3)0.25(Mn2O3)0.25,0.901392185,54.84627944,21,0,,https://doi.org/10.1016/j.ssi.2006.02.025,O+E
(La2O3)0.4(SrO)0.2(Cr2O3)0.25(Mn2O3)0.25,0.865780762,51.46042232,21,0,,https://doi.org/10.1016/j.ssi.2006.02.025,O+E
(La2O3)0.4(SrO)0.2(Cr2O3)0.25(Mn2O3)0.25,0.817553485,48.14378571,21,0,,https://doi.org/10.1016/j.ssi.2006.02.025,O+E
(La2O3)0.4(SrO)0.2(Cr2O3)0.25(Mn2O3)0.25,0.785088493,44.89426837,21,0,,https://doi.org/10.1016/j.ssi.2006.02.025,O+E
(La2O3)0.4(SrO)0.2(Cr2O3)0.25(Mn2O3)0.25,0.753843032,41.70985325,21,0,,https://doi.org/10.1016/j.ssi.2006.02.025,O+E
(La2O3)0.4(SrO)0.2(Cr2O3)0.25(Mn2O3)0.25,0.711630221,38.58957421,21,0,,https://doi.org/10.1016/j.ssi.2006.02.025,O+E
(La2O3)0.4(SrO)0.2(Cr2O3)0.25(Mn2O3)0.25,0.671723946,35.52960959,21,0,,https://doi.org/10.1016/j.ssi.2006.02.025,O+E
(La2O3)0.4(SrO)0.2(Cr2O3)0.25(Mn2O3)0.25,0.644793462,32.52916123,21,0,,https://doi.org/10.1016/j.ssi.2006.02.025,O+E
(La2O3)0.4(SrO)0.2(Cr2O3)0.25(Mn2O3)0.25,0.608512869,29.58650948,21,0,,https://doi.org/10.1016/j.ssi.2006.02.025,O+E
(La2O3)0.4(SrO)0.2(Cr2O3)0.25(Mn2O3)0.25,0.584013036,26.7000003,21,0,,https://doi.org/10.1016/j.ssi.2006.02.025,O+E
(La2O3)0.4(SrO)0.2(Cr2O3)0.25(Mn2O3)0.25,0.551051098,23.86804216,21,0,,https://doi.org/10.1016/j.ssi.2006.02.025,O+E
(La2O3)0.4(SrO)0.2(Cr2O3)0.25(Mn2O3)0.25,6.3078131,893.6025035,0,3,,https://doi.org/10.1016/j.ssi.2006.02.025,O+E
(La2O3)0.4(SrO)0.2(Cr2O3)0.25(Mn2O3)0.25,6.144339441,885.0105379,0,3,,https://doi.org/10.1016/j.ssi.2006.02.025,O+E
(La2O3)0.4(SrO)0.2(Cr2O3)0.25(Mn2O3)0.25,5.718107683,851.8467396,0,3,,https://doi.org/10.1016/j.ssi.2006.02.025,O+E
(La2O3)0.4(SrO)0.2(Cr2O3)0.25(Mn2O3)0.25,6.0141073,851.8467396,0,3,,https://doi.org/10.1016/j.ssi.2006.02.025,O+E
(La2O3)0.4(SrO)0.2(Cr2O3)0.25(Mn2O3)0.25,5.572933598,824.3334796,0,3,,https://doi.org/10.1016/j.ssi.2006.02.025,O+E
(La2O3)0.4(SrO)0.2(Cr2O3)0.25(Mn2O3)0.25,5.212760277,805.5043302,0,3,,https://doi.org/10.1016/j.ssi.2006.02.025,O+E
(La2O3)0.4(SrO)0.2(Cr2O3)0.25(Mn2O3)0.25,4.923738062,776.6814217,0,3,,https://doi.org/10.1016/j.ssi.2006.02.025,O+E
(La2O3)0.4(SrO)0.2(Cr2O3)0.25(Mn2O3)0.25,5.007255751,776.6814217,0,3,,https://doi.org/10.1016/j.ssi.2006.02.025,O+E
(La2O3)0.4(SrO)0.2(Cr2O3)0.25(Mn2O3)0.25,4.89009904,766.2633701,0,3,,https://doi.org/10.1016/j.ssi.2006.02.025,O+E
(La2O3)0.4(SrO)0.2(Cr2O3)0.25(Mn2O3)0.25,4.61720061,756.0500839,0,3,,https://doi.org/10.1016/j.ssi.2006.02.025,O+E
(La2O3)0.4(SrO)0.2(Cr2O3)0.25(Mn2O3)0.25,4.552164286,736.214125,0,3,,https://doi.org/10.1016/j.ssi.2006.02.025,O+E
(La2O3)0.4(SrO)0.2(Cr2O3)0.25(Mn2O3)0.25,4.504968404,729.7776942,0,3,,https://doi.org/10.1016/j.ssi.2006.02.025,O+E
(La2O3)0.4(SrO)0.2(Cr2O3)0.25(Mn2O3)0.25,4.207585679,714.0206781,0,3,,https://doi.org/10.1016/j.ssi.2006.02.025,O+E
(La2O3)0.4(SrO)0.2(Cr2O3)0.25(Mn2O3)0.25,4.233998594,707.8633559,0,3,,https://doi.org/10.1016/j.ssi.2006.02.025,O+E
(La2O3)0.4(SrO)0.2(Cr2O3)0.25(Mn2O3)0.25,4.088472876,692.782332,0,3,,https://doi.org/10.1016/j.ssi.2006.02.025,O+E
(La2O3)0.4(SrO)0.2(Cr2O3)0.25(Mn2O3)0.25,3.839456864,672.4387308,0,3,,https://doi.org/10.1016/j.ssi.2006.02.025,O+E
(La2O3)0.4(SrO)0.2(Cr2O3)0.25(Mn2O3)0.25,3.593431831,655.6689388,0,3,,https://doi.org/10.1016/j.ssi.2006.02.025,O+E