Composition,Conductivity (S/cm),Temperature (degC),PO2 (%),PH2O (%),Grainsize,Ref,Carrier Type
(SrO)0.925(TiO2)0.85(NbO2)0.15,2.962771192,930,2.11133E-17,0,,https://doi.org/10.1039/A702865B,E
(SrO)0.925(TiO2)0.85(NbO2)0.15,2.962771192,930,9.636E-17,0,,https://doi.org/10.1039/A702865B,E
(SrO)0.925(TiO2)0.85(NbO2)0.15,2.962771192,930,2.05858E-16,0,,https://doi.org/10.1039/A702865B,E
(SrO)0.925(TiO2)0.85(NbO2)0.15,2.836809605,930,7.28907E-16,0,,https://doi.org/10.1039/A702865B,E
(SrO)0.925(TiO2)0.85(NbO2)0.15,2.836809605,930,2.00554E-15,0,,https://doi.org/10.1039/A702865B,E
(SrO)0.925(TiO2)0.85(NbO2)0.15,2.836809605,930,5.51814E-15,0,,https://doi.org/10.1039/A702865B,E
(SrO)0.925(TiO2)0.85(NbO2)0.15,2.600724444,930,1.95233E-14,0,,https://doi.org/10.1039/A702865B,E
(SrO)0.925(TiO2)0.85(NbO2)0.15,2.600724444,930,5.37171E-14,0,,https://doi.org/10.1039/A702865B,E
(SrO)0.925(TiO2)0.85(NbO2)0.15,2.384286779,930,3.57765E-13,0,,https://doi.org/10.1039/A702865B,E
(SrO)0.925(TiO2)0.85(NbO2)0.15,2.00394959,930,3.06395E-12,0,,https://doi.org/10.1039/A702865B,E
(SrO)0.925(TiO2)0.85(NbO2)0.15,1.759069582,930,4.46765E-12,0,,https://doi.org/10.1039/A702865B,E
(SrO)0.925(TiO2)0.85(NbO2)0.15,1.684283113,930,9.53683E-12,0,,https://doi.org/10.1039/A702865B,E
(SrO)0.925(TiO2)0.85(NbO2)0.15,1.54411359,930,1.79241E-11,0,,https://doi.org/10.1039/A702865B,E
(SrO)0.925(TiO2)0.85(NbO2)0.15,1.415609264,930,4.33873E-11,0,,https://doi.org/10.1039/A702865B,E
(SrO)0.925(TiO2)0.85(NbO2)0.15,1.355424938,930,8.16098E-11,0,,https://doi.org/10.1039/A702865B,E
(SrO)0.925(TiO2)0.85(NbO2)0.15,1.355424938,930,1.3537E-10,0,,https://doi.org/10.1039/A702865B,E
(SrO)0.925(TiO2)0.85(NbO2)0.15,1.297799335,930,1.97703E-10,0,,https://doi.org/10.1039/A702865B,E
(SrO)0.925(TiO2)0.85(NbO2)0.15,1.090776692,930,3.26896E-10,0,,https://doi.org/10.1039/A702865B,E
(SrO)0.925(TiO2)0.85(NbO2)0.15,1,930,1.48957E-09,0,,https://doi.org/10.1039/A702865B,E
(SrO)0.925(TiO2)0.85(NbO2)0.15,0.30943258,930,0.001103698,0,,https://doi.org/10.1039/A702865B,E
(SrO)0.925(TiO2)0.85(NbO2)0.15,0.209293007,930,0.005675784,0,,https://doi.org/10.1039/A702865B,E
(SrO)0.925(TiO2)0.85(NbO2)0.15,0.091677793,930,0.054509359,0,,https://doi.org/10.1039/A702865B,E
(SrO)0.925(TiO2)0.85(NbO2)0.15,0.087780131,930,0.149860076,0,,https://doi.org/10.1039/A702865B,E
(SrO)0.925(TiO2)0.85(NbO2)0.15,0.080474887,930,0.192701425,0,,https://doi.org/10.1039/A702865B,E
(SrO)0.925(TiO2)0.85(NbO2)0.15,0.070640962,930,0.466083375,0,,https://doi.org/10.1039/A702865B,E
(SrO)0.925(TiO2)0.85(NbO2)0.15,0.064762075,930,0.771885173,0,,https://doi.org/10.1039/A702865B,E
(SrO)0.925(TiO2)0.85(NbO2)0.15,0.059372441,930,1.126410606,0,,https://doi.org/10.1039/A702865B,E
(SrO)0.925(TiO2)0.85(NbO2)0.15,0.032317218,930,4.479756476,0,,https://doi.org/10.1039/A702865B,E
(SrO)0.925(TiO2)0.85(NbO2)0.15,0.019187521,930,17.84445193,0,,https://doi.org/10.1039/A702865B,E
(SrO)0.925(TiO2)0.85(NbO2)0.15,0.012977993,930,91.76537223,0,,https://doi.org/10.1039/A702865B,E
(SrO)0.925(TiO2)0.85(NbO2)0.15,3.274862767,930,1.77404E-18,0,,https://www.google.com/url?sa=t&rct=j&q=&esrc=s&source=web&cd=&cad=rja&uact=8&ved=2ahUKEwjPtYG3l6XqAhWRbs0KHX4FBqcQFjAAegQIBRAB&url=https%3A%2F%2Flink.springer.com%2Fcontent%2Fpdf%2F10.1007%252FBF02376024.pdf&usg=AOvVaw37VxFvqtPrs7FrpPLfph1-,E
(SrO)0.925(TiO2)0.85(NbO2)0.15,3.097184835,930,1.75717E-17,0,,https://www.google.com/url?sa=t&rct=j&q=&esrc=s&source=web&cd=&cad=rja&uact=8&ved=2ahUKEwjPtYG3l6XqAhWRbs0KHX4FBqcQFjAAegQIBRAB&url=https%3A%2F%2Flink.springer.com%2Fcontent%2Fpdf%2F10.1007%252FBF02376024.pdf&usg=AOvVaw37VxFvqtPrs7FrpPLfph1-,E
(SrO)0.925(TiO2)0.85(NbO2)0.15,2.929146833,930,1.74046E-16,0,,https://www.google.com/url?sa=t&rct=j&q=&esrc=s&source=web&cd=&cad=rja&uact=8&ved=2ahUKEwjPtYG3l6XqAhWRbs0KHX4FBqcQFjAAegQIBRAB&url=https%3A%2F%2Flink.springer.com%2Fcontent%2Fpdf%2F10.1007%252FBF02376024.pdf&usg=AOvVaw37VxFvqtPrs7FrpPLfph1-,E
(SrO)0.925(TiO2)0.85(NbO2)0.15,2.769615023,930,2.0869E-15,0,,https://www.google.com/url?sa=t&rct=j&q=&esrc=s&source=web&cd=&cad=rja&uact=8&ved=2ahUKEwjPtYG3l6XqAhWRbs0KHX4FBqcQFjAAegQIBRAB&url=https%3A%2F%2Flink.springer.com%2Fcontent%2Fpdf%2F10.1007%252FBF02376024.pdf&usg=AOvVaw37VxFvqtPrs7FrpPLfph1-,E
(SrO)0.925(TiO2)0.85(NbO2)0.15,2.619926934,930,1.70752E-14,0,,https://www.google.com/url?sa=t&rct=j&q=&esrc=s&source=web&cd=&cad=rja&uact=8&ved=2ahUKEwjPtYG3l6XqAhWRbs0KHX4FBqcQFjAAegQIBRAB&url=https%3A%2F%2Flink.springer.com%2Fcontent%2Fpdf%2F10.1007%252FBF02376024.pdf&usg=AOvVaw37VxFvqtPrs7FrpPLfph1-,E
(SrO)0.925(TiO2)0.85(NbO2)0.15,2.479422071,930,9.53352E-14,0,,https://www.google.com/url?sa=t&rct=j&q=&esrc=s&source=web&cd=&cad=rja&uact=8&ved=2ahUKEwjPtYG3l6XqAhWRbs0KHX4FBqcQFjAAegQIBRAB&url=https%3A%2F%2Flink.springer.com%2Fcontent%2Fpdf%2F10.1007%252FBF02376024.pdf&usg=AOvVaw37VxFvqtPrs7FrpPLfph1-,E
(SrO)0.925(TiO2)0.85(NbO2)0.15,2.221103436,930,2.45494E-12,0,,https://www.google.com/url?sa=t&rct=j&q=&esrc=s&source=web&cd=&cad=rja&uact=8&ved=2ahUKEwjPtYG3l6XqAhWRbs0KHX4FBqcQFjAAegQIBRAB&url=https%3A%2F%2Flink.springer.com%2Fcontent%2Fpdf%2F10.1007%252FBF02376024.pdf&usg=AOvVaw37VxFvqtPrs7FrpPLfph1-,E
(SrO)0.925(TiO2)0.85(NbO2)0.15,1.701004232,930,6.38233E-12,0,,https://www.google.com/url?sa=t&rct=j&q=&esrc=s&source=web&cd=&cad=rja&uact=8&ved=2ahUKEwjPtYG3l6XqAhWRbs0KHX4FBqcQFjAAegQIBRAB&url=https%3A%2F%2Flink.springer.com%2Fcontent%2Fpdf%2F10.1007%252FBF02376024.pdf&usg=AOvVaw37VxFvqtPrs7FrpPLfph1-,E
(SrO)0.925(TiO2)0.85(NbO2)0.15,1.372271846,930,4.31375E-11,0,,https://www.google.com/url?sa=t&rct=j&q=&esrc=s&source=web&cd=&cad=rja&uact=8&ved=2ahUKEwjPtYG3l6XqAhWRbs0KHX4FBqcQFjAAegQIBRAB&url=https%3A%2F%2Flink.springer.com%2Fcontent%2Fpdf%2F10.1007%252FBF02376024.pdf&usg=AOvVaw37VxFvqtPrs7FrpPLfph1-,E
(SrO)0.925(TiO2)0.85(NbO2)0.15,1.231743469,930,1.98955E-10,0,,https://www.google.com/url?sa=t&rct=j&q=&esrc=s&source=web&cd=&cad=rja&uact=8&ved=2ahUKEwjPtYG3l6XqAhWRbs0KHX4FBqcQFjAAegQIBRAB&url=https%3A%2F%2Flink.springer.com%2Fcontent%2Fpdf%2F10.1007%252FBF02376024.pdf&usg=AOvVaw37VxFvqtPrs7FrpPLfph1-,E
(SrO)0.925(TiO2)0.85(NbO2)0.15,1.048622603,930,7.57998E-10,0,,https://www.google.com/url?sa=t&rct=j&q=&esrc=s&source=web&cd=&cad=rja&uact=8&ved=2ahUKEwjPtYG3l6XqAhWRbs0KHX4FBqcQFjAAegQIBRAB&url=https%3A%2F%2Flink.springer.com%2Fcontent%2Fpdf%2F10.1007%252FBF02376024.pdf&usg=AOvVaw37VxFvqtPrs7FrpPLfph1-,E
(SrO)0.925(TiO2)0.85(NbO2)0.15,0.993480329,930,1.62786E-09,0,,https://www.google.com/url?sa=t&rct=j&q=&esrc=s&source=web&cd=&cad=rja&uact=8&ved=2ahUKEwjPtYG3l6XqAhWRbs0KHX4FBqcQFjAAegQIBRAB&url=https%3A%2F%2Flink.springer.com%2Fcontent%2Fpdf%2F10.1007%252FBF02376024.pdf&usg=AOvVaw37VxFvqtPrs7FrpPLfph1-,E
(SrO)0.925(TiO2)0.85(NbO2)0.15,0.303923389,930,0.001048931,0,,https://www.google.com/url?sa=t&rct=j&q=&esrc=s&source=web&cd=&cad=rja&uact=8&ved=2ahUKEwjPtYG3l6XqAhWRbs0KHX4FBqcQFjAAegQIBRAB&url=https%3A%2F%2Flink.springer.com%2Fcontent%2Fpdf%2F10.1007%252FBF02376024.pdf&usg=AOvVaw37VxFvqtPrs7FrpPLfph1-,E
(SrO)0.925(TiO2)0.85(NbO2)0.15,0.187981135,930,0.007089611,0,,https://www.google.com/url?sa=t&rct=j&q=&esrc=s&source=web&cd=&cad=rja&uact=8&ved=2ahUKEwjPtYG3l6XqAhWRbs0KHX4FBqcQFjAAegQIBRAB&url=https%3A%2F%2Flink.springer.com%2Fcontent%2Fpdf%2F10.1007%252FBF02376024.pdf&usg=AOvVaw37VxFvqtPrs7FrpPLfph1-,E
(SrO)0.925(TiO2)0.85(NbO2)0.15,0.089121819,930,0.058007677,0,,https://www.google.com/url?sa=t&rct=j&q=&esrc=s&source=web&cd=&cad=rja&uact=8&ved=2ahUKEwjPtYG3l6XqAhWRbs0KHX4FBqcQFjAAegQIBRAB&url=https%3A%2F%2Flink.springer.com%2Fcontent%2Fpdf%2F10.1007%252FBF02376024.pdf&usg=AOvVaw37VxFvqtPrs7FrpPLfph1-,E
(SrO)0.925(TiO2)0.85(NbO2)0.15,0.075872254,930,0.221003087,0,,https://www.google.com/url?sa=t&rct=j&q=&esrc=s&source=web&cd=&cad=rja&uact=8&ved=2ahUKEwjPtYG3l6XqAhWRbs0KHX4FBqcQFjAAegQIBRAB&url=https%3A%2F%2Flink.springer.com%2Fcontent%2Fpdf%2F10.1007%252FBF02376024.pdf&usg=AOvVaw37VxFvqtPrs7FrpPLfph1-,E
(SrO)0.925(TiO2)0.85(NbO2)0.15,0.064606719,930,0.695542467,0,,https://www.google.com/url?sa=t&rct=j&q=&esrc=s&source=web&cd=&cad=rja&uact=8&ved=2ahUKEwjPtYG3l6XqAhWRbs0KHX4FBqcQFjAAegQIBRAB&url=https%3A%2F%2Flink.springer.com%2Fcontent%2Fpdf%2F10.1007%252FBF02376024.pdf&usg=AOvVaw37VxFvqtPrs7FrpPLfph1-,E
(SrO)0.925(TiO2)0.85(NbO2)0.15,0.049478246,930,1.808262229,0,,https://www.google.com/url?sa=t&rct=j&q=&esrc=s&source=web&cd=&cad=rja&uact=8&ved=2ahUKEwjPtYG3l6XqAhWRbs0KHX4FBqcQFjAAegQIBRAB&url=https%3A%2F%2Flink.springer.com%2Fcontent%2Fpdf%2F10.1007%252FBF02376024.pdf&usg=AOvVaw37VxFvqtPrs7FrpPLfph1-,E
(SrO)0.925(TiO2)0.85(NbO2)0.15,0.039986657,930,2.649942891,0,,https://www.google.com/url?sa=t&rct=j&q=&esrc=s&source=web&cd=&cad=rja&uact=8&ved=2ahUKEwjPtYG3l6XqAhWRbs0KHX4FBqcQFjAAegQIBRAB&url=https%3A%2F%2Flink.springer.com%2Fcontent%2Fpdf%2F10.1007%252FBF02376024.pdf&usg=AOvVaw37VxFvqtPrs7FrpPLfph1-,E
(SrO)0.925(TiO2)0.85(NbO2)0.15,0.030636787,930,4.701096544,0,,https://www.google.com/url?sa=t&rct=j&q=&esrc=s&source=web&cd=&cad=rja&uact=8&ved=2ahUKEwjPtYG3l6XqAhWRbs0KHX4FBqcQFjAAegQIBRAB&url=https%3A%2F%2Flink.springer.com%2Fcontent%2Fpdf%2F10.1007%252FBF02376024.pdf&usg=AOvVaw37VxFvqtPrs7FrpPLfph1-,E
(SrO)0.925(TiO2)0.85(NbO2)0.15,0.017976616,930,21.68201223,0,,https://www.google.com/url?sa=t&rct=j&q=&esrc=s&source=web&cd=&cad=rja&uact=8&ved=2ahUKEwjPtYG3l6XqAhWRbs0KHX4FBqcQFjAAegQIBRAB&url=https%3A%2F%2Flink.springer.com%2Fcontent%2Fpdf%2F10.1007%252FBF02376024.pdf&usg=AOvVaw37VxFvqtPrs7FrpPLfph1-,E
(SrO)0.925(TiO2)0.85(NbO2)0.15,0.012370961,930,100,0,,https://www.google.com/url?sa=t&rct=j&q=&esrc=s&source=web&cd=&cad=rja&uact=8&ved=2ahUKEwjPtYG3l6XqAhWRbs0KHX4FBqcQFjAAegQIBRAB&url=https%3A%2F%2Flink.springer.com%2Fcontent%2Fpdf%2F10.1007%252FBF02376024.pdf&usg=AOvVaw37VxFvqtPrs7FrpPLfph1-,E
(CaO)1(TiO2)0.7(Al2O3)0.15,0.091251411,1121.520272,2.00E+01,0,,https://doi.org/10.1016/0167-2738(92)90095-7,O
(CaO)1(TiO2)0.7(Al2O3)0.15,0.072922561,1081.223072,2.00E+01,0,,https://doi.org/10.1016/0167-2738(92)90095-7,O
(CaO)1(TiO2)0.7(Al2O3)0.15,0.05518822,1054.423065,2.00E+01,0,,https://doi.org/10.1016/0167-2738(92)90095-7,O
(CaO)1(TiO2)0.7(Al2O3)0.15,0.049276934,1021.390552,2.00E+01,0,,https://doi.org/10.1016/0167-2738(92)90095-7,O
(CaO)1(TiO2)0.7(Al2O3)0.15,0.038350254,1000.333265,2.00E+01,0,,https://doi.org/10.1016/0167-2738(92)90095-7,O
(CaO)1(TiO2)0.7(Al2O3)0.15,0.032409382,973.2401463,2.00E+01,0,,https://doi.org/10.1016/0167-2738(92)90095-7,O
(CaO)1(TiO2)0.7(Al2O3)0.15,0.026641682,947.2855099,2.00E+01,0,,https://doi.org/10.1016/0167-2738(92)90095-7,O
(CaO)1(TiO2)0.7(Al2O3)0.15,0.020156617,922.4174353,2.00E+01,0,,https://doi.org/10.1016/0167-2738(92)90095-7,O
(CaO)1(TiO2)0.7(Al2O3)0.15,0.016569467,898.5162381,2.00E+01,0,,https://doi.org/10.1016/0167-2738(92)90095-7,O
(CaO)1(TiO2)0.7(Al2O3)0.15,0.0136207,875.5520678,2.00E+01,0,,https://doi.org/10.1016/0167-2738(92)90095-7,O
(CaO)1(TiO2)0.7(Al2O3)0.15,0.009739088,842.7576377,2.00E+01,0,,https://doi.org/10.1016/0167-2738(92)90095-7,O
(CaO)1(TiO2)0.7(Al2O3)0.15,0.008232832,824.4704938,2.00E+01,0,,https://doi.org/10.1016/0167-2738(92)90095-7,O
(CaO)1(TiO2)0.7(Al2O3)0.15,0.005571516,796.9478883,2.00E+01,0,,https://doi.org/10.1016/0167-2738(92)90095-7,O
(CaO)1(TiO2)0.7(Al2O3)0.15,0.003876226,770.7649488,2.00E+01,0,,https://doi.org/10.1016/0167-2738(92)90095-7,O
(CaO)1(TiO2)0.7(Al2O3)0.15,0.002696776,745.832857,2.00E+01,0,,https://doi.org/10.1016/0167-2738(92)90095-7,O
(CaO)1(TiO2)0.7(Al2O3)0.15,0.0019835,724.1737164,2.00E+01,0,,https://doi.org/10.1016/0167-2738(92)90095-7,O
(CaO)1(TiO2)0.7(Al2O3)0.15,0.00126971,699.385094,2.00E+01,0,,https://doi.org/10.1016/0167-2738(92)90095-7,O
(CaO)1(TiO2)0.7(Al2O3)0.15,0.000811826,668.1588679,2.00E+01,0,,https://doi.org/10.1016/0167-2738(92)90095-7,O
(CaO)1(TiO2)0.7(Al2O3)0.15,0.00061385,649.6408749,2.00E+01,0,,https://doi.org/10.1016/0167-2738(92)90095-7,O
(CaO)1(TiO2)0.7(Fe2O3)0.15,0.163269798,958.1616641,2.00E+01,0,,https://doi.org/10.1016/0167-2738(92)90095-7,O+E
(CaO)1(TiO2)0.7(Fe2O3)0.15,0.123286023,852.9837144,2.00E+01,0,,https://doi.org/10.1016/0167-2738(92)90095-7,O+E
(CaO)1(TiO2)0.7(Fe2O3)0.15,0.06789293,688.7016314,2.00E+01,0,,https://doi.org/10.1016/0167-2738(92)90095-7,O+E
(CaO)1(TiO2)0.7(Fe2O3)0.15,0.032508774,551.9668416,2.00E+01,0,,https://doi.org/10.1016/0167-2738(92)90095-7,O+E
(CaO)1(TiO2)0.7(Fe2O3)0.15,0.015586606,469.6908666,2.00E+01,0,,https://doi.org/10.1016/0167-2738(92)90095-7,O+E
(CaO)1(TiO2)0.7(Fe2O3)0.15,0.006726182,389.9861057,2.00E+01,0,,https://doi.org/10.1016/0167-2738(92)90095-7,O+E
(CaO)1(TiO2)0.7(Fe2O3)0.15,0.002802358,322.0439338,2.00E+01,0,,https://doi.org/10.1016/0167-2738(92)90095-7,O+E
(BaO)1(ZrO2)0.7(In2O3)0.15,0.006103083,702.550236,20,1.9,3,https://doi.org/10.1016/j.ssi.2011.06.014,H
(BaO)1(ZrO2)0.7(In2O3)0.15,0.003834343,651.5000765,20,1.9,3,https://doi.org/10.1016/j.ssi.2011.06.014,H
(BaO)1(ZrO2)0.7(In2O3)0.15,0.002297149,601.5003213,20,1.9,3,https://doi.org/10.1016/j.ssi.2011.06.014,H
(BaO)1(ZrO2)0.7(In2O3)0.15,0.00138291,550.201869,20,1.9,3,https://doi.org/10.1016/j.ssi.2011.06.014,H
(BaO)1(ZrO2)0.7(In2O3)0.15,0.000794188,500.1793572,20,1.9,3,https://doi.org/10.1016/j.ssi.2011.06.014,H
(BaO)1(ZrO2)0.7(In2O3)0.15,0.000435814,450.3667914,20,1.9,3,https://doi.org/10.1016/j.ssi.2011.06.014,H
(BaO)1(ZrO2)0.7(In2O3)0.15,0.000246371,400.3640254,20,1.9,3,https://doi.org/10.1016/j.ssi.2011.06.014,H
(BaO)1(ZrO2)0.7(In2O3)0.15,0.001673233,702.550236,0,0,3,https://doi.org/10.1016/j.ssi.2011.06.014,H
(BaO)1(ZrO2)0.7(In2O3)0.15,0.001362142,651.5000765,0,0,3,https://doi.org/10.1016/j.ssi.2011.06.014,H
(BaO)1(ZrO2)0.7(In2O3)0.15,0.001057422,601.5003213,0,0,3,https://doi.org/10.1016/j.ssi.2011.06.014,H
(BaO)1(ZrO2)0.7(In2O3)0.15,0.000823446,550.201869,0,0,3,https://doi.org/10.1016/j.ssi.2011.06.014,H
(BaO)1(ZrO2)0.7(In2O3)0.15,0.000590077,500.1793572,0,0,3,https://doi.org/10.1016/j.ssi.2011.06.014,H
(BaO)1(ZrO2)0.7(In2O3)0.15,0.000400341,450.3667914,0,0,3,https://doi.org/10.1016/j.ssi.2011.06.014,H
(BaO)1(ZrO2)0.7(In2O3)0.15,0.000252885,400.3640254,0,0,3,https://doi.org/10.1016/j.ssi.2011.06.014,H
(BaO)1(ZrO2)0.7(In2O3)0.15,0.006109311,702.550236,20,0,3,https://doi.org/10.1016/j.ssi.2011.06.014,H
(BaO)1(ZrO2)0.7(In2O3)0.15,0.00456207,651.5000765,20,0,3,https://doi.org/10.1016/j.ssi.2011.06.014,H
(BaO)1(ZrO2)0.7(In2O3)0.15,0.002769465,601.5003213,20,0,3,https://doi.org/10.1016/j.ssi.2011.06.014,H
(BaO)1(ZrO2)0.7(In2O3)0.15,0.000990943,550.201869,20,0,3,https://doi.org/10.1016/j.ssi.2011.06.014,H
(BaO)1(ZrO2)0.7(In2O3)0.15,0.000508835,500.1793572,20,0,3,https://doi.org/10.1016/j.ssi.2011.06.014,H
(BaO)1(ZrO2)0.7(In2O3)0.15,0.000240974,450.3667914,20,0,3,https://doi.org/10.1016/j.ssi.2011.06.014,H
(BaO)1(ZrO2)0.7(In2O3)0.15,0.000105117,400.3640254,20,0,3,https://doi.org/10.1016/j.ssi.2011.06.014,H
(BaO)1(Fe2O3)0.425(CuO)0.15,7.606837607,297.7207977,20,0,1,https://doi.org/10.1016/j.ijhydene.2016.01.071,O+E
(BaO)1(Fe2O3)0.425(CuO)0.15,8.290598291,313.6752137,20,0,1,https://doi.org/10.1016/j.ijhydene.2016.01.071,O+E
(BaO)1(Fe2O3)0.425(CuO)0.15,8.905982906,319.6581197,20,0,1,https://doi.org/10.1016/j.ijhydene.2016.01.071,O+E
(BaO)1(Fe2O3)0.425(CuO)0.15,9.863247863,339.6011396,20,0,1,https://doi.org/10.1016/j.ijhydene.2016.01.071,O+E
(BaO)1(Fe2O3)0.425(CuO)0.15,10.68376068,355.5555556,20,0,1,https://doi.org/10.1016/j.ijhydene.2016.01.071,O+E
(BaO)1(Fe2O3)0.425(CuO)0.15,11.57264957,367.5213675,20,0,1,https://doi.org/10.1016/j.ijhydene.2016.01.071,O+E
(BaO)1(Fe2O3)0.425(CuO)0.15,12.39316239,379.4871795,20,0,1,https://doi.org/10.1016/j.ijhydene.2016.01.071,O+E
(BaO)1(Fe2O3)0.425(CuO)0.15,13.14529915,395.4415954,20,0,1,https://doi.org/10.1016/j.ijhydene.2016.01.071,O+E
(BaO)1(Fe2O3)0.425(CuO)0.15,13.82905983,409.4017094,20,0,1,https://doi.org/10.1016/j.ijhydene.2016.01.071,O+E
(BaO)1(Fe2O3)0.425(CuO)0.15,14.64957265,425.3561254,20,0,1,https://doi.org/10.1016/j.ijhydene.2016.01.071,O+E
(BaO)1(Fe2O3)0.425(CuO)0.15,15.1965812,443.3048433,20,0,1,https://doi.org/10.1016/j.ijhydene.2016.01.071,O+E
(BaO)1(Fe2O3)0.425(CuO)0.15,15.81196581,463.2478632,20,0,1,https://doi.org/10.1016/j.ijhydene.2016.01.071,O+E
(BaO)1(Fe2O3)0.425(CuO)0.15,15.94871795,489.1737892,20,0,1,https://doi.org/10.1016/j.ijhydene.2016.01.071,O+E
(BaO)1(Fe2O3)0.425(CuO)0.15,16.01709402,521.0826211,20,0,1,https://doi.org/10.1016/j.ijhydene.2016.01.071,E
(BaO)1(Fe2O3)0.425(CuO)0.15,15.88034188,543.019943,20,0,1,https://doi.org/10.1016/j.ijhydene.2016.01.071,E
(BaO)1(Fe2O3)0.425(CuO)0.15,15.47008547,568.9458689,20,0,1,https://doi.org/10.1016/j.ijhydene.2016.01.071,E
(BaO)1(Fe2O3)0.425(CuO)0.15,15.26495726,592.8774929,20,0,1,https://doi.org/10.1016/j.ijhydene.2016.01.071,E
(BaO)1(Fe2O3)0.425(CuO)0.15,14.78632479,618.8034188,20,0,1,https://doi.org/10.1016/j.ijhydene.2016.01.071,E
(BaO)1(Fe2O3)0.425(CuO)0.15,14.37606838,636.7521368,20,0,1,https://doi.org/10.1016/j.ijhydene.2016.01.071,E
(BaO)1(Fe2O3)0.425(CuO)0.15,13.82905983,658.6894587,20,0,1,https://doi.org/10.1016/j.ijhydene.2016.01.071,E
(BaO)1(Fe2O3)0.425(CuO)0.15,13.14529915,682.6210826,20,0,1,https://doi.org/10.1016/j.ijhydene.2016.01.071,E
(BaO)1(Fe2O3)0.425(CuO)0.15,12.39316239,708.5470085,20,0,1,https://doi.org/10.1016/j.ijhydene.2016.01.071,E
(BaO)1(Fe2O3)0.425(CuO)0.15,11.64102564,732.4786325,20,0,1,https://doi.org/10.1016/j.ijhydene.2016.01.071,E
(BaO)1(Fe2O3)0.425(CuO)0.15,11.16239316,752.4216524,20,0,1,https://doi.org/10.1016/j.ijhydene.2016.01.071,E
(BaO)1(Fe2O3)0.425(CuO)0.15,10.54700855,772.3646724,20,0,1,https://doi.org/10.1016/j.ijhydene.2016.01.071,E
(BaO)1(Fe2O3)0.425(CuO)0.15,9.931623932,798.2905983,20,0,1,https://doi.org/10.1016/j.ijhydene.2016.01.071,E
(BaO)1(Fe2O3)0.425(CuO)0.15,9.111111111,826.2108262,20,0,1,https://doi.org/10.1016/j.ijhydene.2016.01.071,E
(BaO)1(SnO2)0.75(Y2O3)0.125,0.001309102,831.6139893,0,2.40E+00,,https://doi.org/10.1016/j.ssi.2012.02.045,H
(BaO)1(SnO2)0.75(Y2O3)0.125,0.00079304,791.1843925,0,2.40E+00,,https://doi.org/10.1016/j.ssi.2012.02.045,H
(BaO)1(SnO2)0.75(Y2O3)0.125,0.000587566,748.7525345,0,2.40E+00,,https://doi.org/10.1016/j.ssi.2012.02.045,H
(BaO)1(SnO2)0.75(Y2O3)0.125,0.000506558,705.1321148,0,2.40E+00,,https://doi.org/10.1016/j.ssi.2012.02.045,H
(BaO)1(SnO2)0.75(Y2O3)0.125,0.000482317,663.0506,0,2.40E+00,,https://doi.org/10.1016/j.ssi.2012.02.045,H
(BaO)1(SnO2)0.75(Y2O3)0.125,0.000418231,618.9332574,0,2.40E+00,,https://doi.org/10.1016/j.ssi.2012.02.045,H
(BaO)1(SnO2)0.75(Y2O3)0.125,0.000624107,577.0574045,0,2.40E+00,,https://doi.org/10.1016/j.ssi.2012.02.045,H
(BaO)1(SnO2)0.75(Y2O3)0.125,0.000494514,531.4988127,0,2.40E+00,,https://doi.org/10.1016/j.ssi.2012.02.045,H
(BaO)1(SnO2)0.75(Y2O3)0.125,0.000356877,485.2605718,0,2.40E+00,,https://doi.org/10.1016/j.ssi.2012.02.045,H
(BaO)1(SnO2)0.75(Y2O3)0.125,0.000188871,392.5182871,0,2.40E+00,,https://doi.org/10.1016/j.ssi.2012.02.045,H
(BaO)1(SnO2)0.75(Y2O3)0.125,9.88746E-05,342.6472643,0,2.40E+00,,https://doi.org/10.1016/j.ssi.2012.02.045,H
(BaO)1(SnO2)0.75(Y2O3)0.125,4.10559E-05,290.1043498,0,2.40E+00,,https://doi.org/10.1016/j.ssi.2012.02.045,H
(SrO)1(MoO2)0.9(CoO2)0.1,386.5671642,21.51394422,0,0,1,https://doi.org/10.1016/j.jpowsour.2014.02.031,E
(SrO)1(MoO2)0.9(CoO2)0.1,308.9552239,129.0836653,0,0,1,https://doi.org/10.1016/j.jpowsour.2014.02.031,E
(SrO)1(MoO2)0.9(CoO2)0.1,279.1044776,200.7968127,0,0,1,https://doi.org/10.1016/j.jpowsour.2014.02.031,E
(SrO)1(MoO2)0.9(CoO2)0.1,246.2686567,326.2948207,0,0,1,https://doi.org/10.1016/j.jpowsour.2014.02.031,E
(SrO)1(MoO2)0.9(CoO2)0.1,225.3731343,394.4223108,0,0,1,https://doi.org/10.1016/j.jpowsour.2014.02.031,E
(SrO)1(MoO2)0.9(CoO2)0.1,216.4179104,448.2071713,0,0,1,https://doi.org/10.1016/j.jpowsour.2014.02.031,E
(SrO)1(MoO2)0.9(CoO2)0.1,211.9402985,494.8207171,0,0,1,https://doi.org/10.1016/j.jpowsour.2014.02.031,E
(SrO)1(MoO2)0.9(CoO2)0.1,204.4776119,548.6055777,0,0,1,https://doi.org/10.1016/j.jpowsour.2014.02.031,E
(SrO)1(MoO2)0.9(CoO2)0.1,194.0298507,649.0039841,0,0,1,https://doi.org/10.1016/j.jpowsour.2014.02.031,E
(SrO)1(MoO2)0.9(CoO2)0.1,182.0895522,749.4023904,0,0,1,https://doi.org/10.1016/j.jpowsour.2014.02.031,E