Composition,Conductivity (S/cm),Temperature (degC),PO2 (%),PH2O (%),Grainsize,Ref,Carrier Type
(BaO)1(CeO2)0.7(Y2O3)0.125(ZnO)0.05,7.85069E-05,246.2379529,0,1.9,0.877,https://doi.org/10.1016/j.ijhydene.2016.02.073,H
(BaO)1(CeO2)0.7(Y2O3)0.125(ZnO)0.05,2.57082E-05,196.2775152,0,1.9,0.877,https://doi.org/10.1016/j.ijhydene.2016.02.073,H
(BaO)1(CeO2)0.7(Y2O3)0.125(ZnO)0.05,3.41995E-06,148.5953897,0,1.9,0.877,https://doi.org/10.1016/j.ijhydene.2016.02.073,H
(BaO)1(CeO2)0.8(ZrO2)0.1(Y2O3)0.05,0.048265827,1001.414063,0,1.7,,https://doi.org/10.1016/S0167-2738(00)00777-3,H
(BaO)1(CeO2)0.8(ZrO2)0.1(Y2O3)0.05,0.039428384,948.9101124,0,1.7,,https://doi.org/10.1016/S0167-2738(00)00777-3,H
(BaO)1(CeO2)0.8(ZrO2)0.1(Y2O3)0.05,0.034469421,902.6756757,0,1.7,,https://doi.org/10.1016/S0167-2738(00)00777-3,H
(BaO)1(CeO2)0.8(ZrO2)0.1(Y2O3)0.05,0.029136001,852,0,1.7,,https://doi.org/10.1016/S0167-2738(00)00777-3,H
(BaO)1(CeO2)0.8(ZrO2)0.1(Y2O3)0.05,0.024632621,800.1907895,0,1.7,,https://doi.org/10.1016/S0167-2738(00)00777-3,H
(BaO)1(CeO2)0.8(ZrO2)0.1(Y2O3)0.05,0.020476162,751.33281,0,1.7,,https://doi.org/10.1016/S0167-2738(00)00777-3,H
(BaO)1(CeO2)0.8(ZrO2)0.1(Y2O3)0.05,0.01673787,702.3363229,0,1.7,,https://doi.org/10.1016/S0167-2738(00)00777-3,H
(BaO)1(CeO2)0.8(ZrO2)0.1(Y2O3)0.05,0.013920795,651.2209632,0,1.7,,https://doi.org/10.1016/S0167-2738(00)00777-3,H
(BaO)1(CeO2)0.8(ZrO2)0.1(Y2O3)0.05,0.010110504,600.4939759,0,1.7,,https://doi.org/10.1016/S0167-2738(00)00777-3,H
(BaO)1(CeO2)0.8(ZrO2)0.1(Y2O3)0.05,0.079350314,1001.193548,20,1.7,,https://doi.org/10.1016/S0167-2738(00)00777-3,O+H
(BaO)1(CeO2)0.8(ZrO2)0.1(Y2O3)0.05,0.066141973,948.6494845,20,1.7,,https://doi.org/10.1016/S0167-2738(00)00777-3,O+H
(BaO)1(CeO2)0.8(ZrO2)0.1(Y2O3)0.05,0.050256375,900.2673267,20,1.7,,https://doi.org/10.1016/S0167-2738(00)00777-3,O+H
(BaO)1(CeO2)0.8(ZrO2)0.1(Y2O3)0.05,0.028518015,798.4285714,20,1.7,,https://doi.org/10.1016/S0167-2738(00)00777-3,O+H
(BaO)1(CeO2)0.8(ZrO2)0.1(Y2O3)0.05,0.015611216,701.5065789,20,1.7,,https://doi.org/10.1016/S0167-2738(00)00777-3,O+H
(BaO)1(CeO2)0.8(ZrO2)0.1(Y2O3)0.05,0.007387491,599.6067747,20,1.7,,https://doi.org/10.1016/S0167-2738(00)00777-3,O+H
(BaO)1(CeO2)0.75(In2O3)0.1(TiO2)0.05,0.00488795,751.5310245,20,0,,https://doi.org/10.1016/j.jallcom.2012.11.197,H
(BaO)1(CeO2)0.75(In2O3)0.1(TiO2)0.05,0.003557547,700.9368999,20,0,,https://doi.org/10.1016/j.jallcom.2012.11.197,H
(BaO)1(CeO2)0.75(In2O3)0.1(TiO2)0.05,0.002405013,651.4791667,20,0,,https://doi.org/10.1016/j.jallcom.2012.11.197,H
(BaO)1(CeO2)0.75(In2O3)0.1(TiO2)0.05,0.001473244,601.3842365,20,0,,https://doi.org/10.1016/j.jallcom.2012.11.197,H
(BaO)1(CeO2)0.75(In2O3)0.1(TiO2)0.05,0.000925626,550.6658933,20,0,,https://doi.org/10.1016/j.jallcom.2012.11.197,H
(BaO)1(CeO2)0.75(In2O3)0.1(TiO2)0.05,0.000582034,500.4204793,20,0,,https://doi.org/10.1016/j.jallcom.2012.11.197,H
(BaO)1(CeO2)0.75(In2O3)0.1(TiO2)0.05,0.007761695,751.5310245,0,0,,https://doi.org/10.1016/j.jallcom.2012.11.197,H
(BaO)1(CeO2)0.75(In2O3)0.1(TiO2)0.05,0.005489116,700.9368999,0,0,,https://doi.org/10.1016/j.jallcom.2012.11.197,H
(BaO)1(CeO2)0.75(In2O3)0.1(TiO2)0.05,0.003645866,651.4791667,0,0,,https://doi.org/10.1016/j.jallcom.2012.11.197,H
(BaO)1(CeO2)0.75(In2O3)0.1(TiO2)0.05,0.002345728,601.3842365,0,0,,https://doi.org/10.1016/j.jallcom.2012.11.197,H
(BaO)1(CeO2)0.75(In2O3)0.1(TiO2)0.05,0.001244999,550.6658933,0,0,,https://doi.org/10.1016/j.jallcom.2012.11.197,H
(BaO)1(CeO2)0.75(In2O3)0.1(TiO2)0.05,0.000778526,500.4204793,0,0,,https://doi.org/10.1016/j.jallcom.2012.11.197,H
(BaO)1(CeO2)0.75(In2O3)0.1(TiO2)0.05,0.005677929,751.5310245,20,1.9,,https://doi.org/10.1016/j.jallcom.2012.11.197,H
(BaO)1(CeO2)0.75(In2O3)0.1(TiO2)0.05,0.004169766,700.9368999,20,1.9,,https://doi.org/10.1016/j.jallcom.2012.11.197,H
(BaO)1(CeO2)0.75(In2O3)0.1(TiO2)0.05,0.003223888,651.4791667,20,1.9,,https://doi.org/10.1016/j.jallcom.2012.11.197,H
(BaO)1(CeO2)0.75(In2O3)0.1(TiO2)0.05,0.002081784,601.3842365,20,1.9,,https://doi.org/10.1016/j.jallcom.2012.11.197,H
(BaO)1(CeO2)0.75(In2O3)0.1(TiO2)0.05,0.001489993,550.6658933,20,1.9,,https://doi.org/10.1016/j.jallcom.2012.11.197,H
(BaO)1(CeO2)0.75(In2O3)0.1(TiO2)0.05,0.000962144,500.4204793,20,1.9,,https://doi.org/10.1016/j.jallcom.2012.11.197,H
(BaO)1(CeO2)0.75(In2O3)0.1(TiO2)0.05,0.008220413,751.5310245,0,1.9,,https://doi.org/10.1016/j.jallcom.2012.11.197,H
(BaO)1(CeO2)0.75(In2O3)0.1(TiO2)0.05,0.006330215,700.9368999,0,1.9,,https://doi.org/10.1016/j.jallcom.2012.11.197,H
(BaO)1(CeO2)0.75(In2O3)0.1(TiO2)0.05,0.004566405,651.4791667,0,1.9,,https://doi.org/10.1016/j.jallcom.2012.11.197,H
(BaO)1(CeO2)0.75(In2O3)0.1(TiO2)0.05,0.002890633,601.3842365,0,1.9,,https://doi.org/10.1016/j.jallcom.2012.11.197,H
(BaO)1(CeO2)0.75(In2O3)0.1(TiO2)0.05,0.002018202,550.6658933,0,1.9,,https://doi.org/10.1016/j.jallcom.2012.11.197,H
(BaO)1(CeO2)0.75(In2O3)0.1(TiO2)0.05,0.001409082,500.4204793,0,1.9,,https://doi.org/10.1016/j.jallcom.2012.11.197,H
(BaO)1(CeO2)0.85(In2O3)0.05(TiO2)0.05,0.001349078,751.5310245,20,0,,https://doi.org/10.1016/j.jallcom.2012.11.197,H+E
(BaO)1(CeO2)0.85(In2O3)0.05(TiO2)0.05,0.000867456,700.9368999,20,0,,https://doi.org/10.1016/j.jallcom.2012.11.197,H+E
(BaO)1(CeO2)0.85(In2O3)0.05(TiO2)0.05,0.000558096,651.4791667,20,0,,https://doi.org/10.1016/j.jallcom.2012.11.197,H+E
(BaO)1(CeO2)0.85(In2O3)0.05(TiO2)0.05,0.000350444,601.3842365,20,0,,https://doi.org/10.1016/j.jallcom.2012.11.197,H+E
(BaO)1(CeO2)0.85(In2O3)0.05(TiO2)0.05,0.000185144,550.6658933,20,0,,https://doi.org/10.1016/j.jallcom.2012.11.197,H+E
(BaO)1(CeO2)0.85(In2O3)0.05(TiO2)0.05,0.000105442,500.4204793,20,0,,https://doi.org/10.1016/j.jallcom.2012.11.197,H+E
(BaO)1(CeO2)0.85(In2O3)0.05(TiO2)0.05,0.001221822,751.5310245,0,0,,https://doi.org/10.1016/j.jallcom.2012.11.197,H+E
(BaO)1(CeO2)0.85(In2O3)0.05(TiO2)0.05,0.000810304,700.9368999,0,0,,https://doi.org/10.1016/j.jallcom.2012.11.197,H+E
(BaO)1(CeO2)0.85(In2O3)0.05(TiO2)0.05,0.000457501,651.4791667,0,0,,https://doi.org/10.1016/j.jallcom.2012.11.197,H+E
(BaO)1(CeO2)0.85(In2O3)0.05(TiO2)0.05,0.00025862,601.3842365,0,0,,https://doi.org/10.1016/j.jallcom.2012.11.197,H+E
(BaO)1(CeO2)0.85(In2O3)0.05(TiO2)0.05,0.000156229,550.6658933,0,0,,https://doi.org/10.1016/j.jallcom.2012.11.197,H+E
(BaO)1(CeO2)0.85(In2O3)0.05(TiO2)0.05,7.53682E-05,500.4204793,0,0,,https://doi.org/10.1016/j.jallcom.2012.11.197,H+E
(BaO)1(CeO2)0.85(In2O3)0.05(TiO2)0.05,0.001489993,751.5310245,20,1.9,,https://doi.org/10.1016/j.jallcom.2012.11.197,H+E
(BaO)1(CeO2)0.85(In2O3)0.05(TiO2)0.05,0.001012947,700.9368999,20,1.9,,https://doi.org/10.1016/j.jallcom.2012.11.197,H+E
(BaO)1(CeO2)0.85(In2O3)0.05(TiO2)0.05,0.000654097,651.4791667,20,1.9,,https://doi.org/10.1016/j.jallcom.2012.11.197,H+E
(BaO)1(CeO2)0.85(In2O3)0.05(TiO2)0.05,0.000422375,601.3842365,20,1.9,,https://doi.org/10.1016/j.jallcom.2012.11.197,H+E
(BaO)1(CeO2)0.85(In2O3)0.05(TiO2)0.05,0.000252484,550.6658933,20,1.9,,https://doi.org/10.1016/j.jallcom.2012.11.197,H+E
(BaO)1(CeO2)0.85(In2O3)0.05(TiO2)0.05,0.00013271,500.4204793,20,1.9,,https://doi.org/10.1016/j.jallcom.2012.11.197,H+E
(BaO)1(CeO2)0.85(In2O3)0.05(TiO2)0.05,0.001455863,751.5310245,0,1.9,,https://doi.org/10.1016/j.jallcom.2012.11.197,H+E
(BaO)1(CeO2)0.85(In2O3)0.05(TiO2)0.05,0.000891979,700.9368999,0,1.9,,https://doi.org/10.1016/j.jallcom.2012.11.197,H+E
(BaO)1(CeO2)0.85(In2O3)0.05(TiO2)0.05,0.000511941,651.4791667,0,1.9,,https://doi.org/10.1016/j.jallcom.2012.11.197,H+E
(BaO)1(CeO2)0.85(In2O3)0.05(TiO2)0.05,0.000303577,601.3842365,0,1.9,,https://doi.org/10.1016/j.jallcom.2012.11.197,H+E
(BaO)1(CeO2)0.85(In2O3)0.05(TiO2)0.05,0.000143228,550.6658933,0,1.9,,https://doi.org/10.1016/j.jallcom.2012.11.197,H+E
(BaO)1(CeO2)0.85(In2O3)0.05(TiO2)0.05,8.22041E-05,500.4204793,0,1.9,,https://doi.org/10.1016/j.jallcom.2012.11.197,H+E
(BaO)1(CeO2)0.85(ZrO2)0.05(Y2O3)0.05,0.013812115,750.2048237,0,1.9,1.2,https://doi.org/10.1016/j.ceramint.2019.01.134,H
(BaO)1(CeO2)0.85(ZrO2)0.05(Y2O3)0.05,0.011372019,700.0668983,0,1.9,1.2,https://doi.org/10.1016/j.ceramint.2019.01.134,H
(BaO)1(CeO2)0.85(ZrO2)0.05(Y2O3)0.05,0.009433439,650.4828496,0,1.9,1.2,https://doi.org/10.1016/j.ceramint.2019.01.134,H
(BaO)1(CeO2)0.85(ZrO2)0.05(Y2O3)0.05,0.007676338,599.954014,0,1.9,1.2,https://doi.org/10.1016/j.ceramint.2019.01.134,H
(BaO)1(CeO2)0.85(ZrO2)0.05(Y2O3)0.05,0.005877239,550.6505368,0,1.9,1.2,https://doi.org/10.1016/j.ceramint.2019.01.134,H
(BaO)1(CeO2)0.85(NbO2)0.05(Y2O3)0.05,0.006235286,750.2048237,0,1.9,1.3,https://doi.org/10.1016/j.ceramint.2019.01.134,H
(BaO)1(CeO2)0.85(NbO2)0.05(Y2O3)0.05,0.00537962,700.0668983,0,1.9,1.3,https://doi.org/10.1016/j.ceramint.2019.01.134,H
(BaO)1(CeO2)0.85(NbO2)0.05(Y2O3)0.05,0.004678659,650.4828496,0,1.9,1.3,https://doi.org/10.1016/j.ceramint.2019.01.134,H
(BaO)1(CeO2)0.85(NbO2)0.05(Y2O3)0.05,0.003592561,599.954014,0,1.9,1.3,https://doi.org/10.1016/j.ceramint.2019.01.134,H
(BaO)1(CeO2)0.85(NbO2)0.05(Y2O3)0.05,0.002747944,550.6505368,0,1.9,1.3,https://doi.org/10.1016/j.ceramint.2019.01.134,H
(BaO)1(CeO2)0.8(Y2O3)0.05(Nd2O3)0.05,0.080795978,802.168626,20,3,1.5,https://doi.org/10.1016/j.ssi.2006.02.047,H
(BaO)1(CeO2)0.8(Y2O3)0.05(Nd2O3)0.05,0.071748997,752.7132028,20,3,1.5,https://doi.org/10.1016/j.ssi.2006.02.047,H
(BaO)1(CeO2)0.8(Y2O3)0.05(Nd2O3)0.05,0.061606259,700.6705787,20,3,1.5,https://doi.org/10.1016/j.ssi.2006.02.047,H
(BaO)1(CeO2)0.8(Y2O3)0.05(Nd2O3)0.05,0.052904687,650.5359376,20,3,1.5,https://doi.org/10.1016/j.ssi.2006.02.047,H
(BaO)1(CeO2)0.8(Y2O3)0.05(Nd2O3)0.05,0.044710039,600.6618504,20,3,1.5,https://doi.org/10.1016/j.ssi.2006.02.047,H
(BaO)1(CeO2)0.8(Y2O3)0.05(Nd2O3)0.05,0.036655498,550.9219,20,3,1.5,https://doi.org/10.1016/j.ssi.2006.02.047,H
(BaO)1(CeO2)0.8(Y2O3)0.05(Nd2O3)0.05,0.026423864,500.6799807,20,3,1.5,https://doi.org/10.1016/j.ssi.2006.02.047,H
(BaO)1(CeO2)0.8(Y2O3)0.05(Nd2O3)0.05,0.019178337,449.8257371,20,3,1.5,https://doi.org/10.1016/j.ssi.2006.02.047,H
(BaO)1(CeO2)0.8(Y2O3)0.05(Nd2O3)0.05,0.012244561,400.2549706,20,3,1.5,https://doi.org/10.1016/j.ssi.2006.02.047,H
(BaO)1(ZrO2)0.8(Pr2O3)0.05(Y2O3)0.05,0.007546216,703.2773723,20,0,,https://doi.org/10.1002/adfm.201001540,O+E
(BaO)1(ZrO2)0.8(Pr2O3)0.05(Y2O3)0.05,0.004657172,655.8194444,20,0,,https://doi.org/10.1002/adfm.201001540,O+E
(BaO)1(ZrO2)0.8(Pr2O3)0.05(Y2O3)0.05,0.003658632,617.1830283,20,0,,https://doi.org/10.1002/adfm.201001540,O+E
(BaO)1(ZrO2)0.8(Pr2O3)0.05(Y2O3)0.05,0.001922396,553.8933539,20,0,,https://doi.org/10.1002/adfm.201001540,O+E
(BaO)1(ZrO2)0.8(Pr2O3)0.05(Y2O3)0.05,0.00105156,511.457478,20,0,,https://doi.org/10.1002/adfm.201001540,O+E
(BaO)1(ZrO2)0.8(Pr2O3)0.05(Y2O3)0.05,0.000575209,458.874145,20,0,,https://doi.org/10.1002/adfm.201001540,O+E
(BaO)1(ZrO2)0.8(Pr2O3)0.05(Y2O3)0.05,0.000340997,407.6615776,20,0,,https://doi.org/10.1002/adfm.201001540,O+E
(BaO)1(ZrO2)0.8(Pr2O3)0.05(Y2O3)0.05,0.000146534,355.6721504,20,0,,https://doi.org/10.1002/adfm.201001540,O+E
(BaO)1(ZrO2)0.8(Pr2O3)0.05(Y2O3)0.05,0.004458218,701.5569164,0,1.9,,https://doi.org/10.1002/adfm.201001540,H
(BaO)1(ZrO2)0.8(Pr2O3)0.05(Y2O3)0.05,0.003835461,652.5388237,0,1.9,,https://doi.org/10.1002/adfm.201001540,H
(BaO)1(ZrO2)0.8(Pr2O3)0.05(Y2O3)0.05,0.002685406,602.4619187,0,1.9,,https://doi.org/10.1002/adfm.201001540,H
(BaO)1(ZrO2)0.8(Pr2O3)0.05(Y2O3)0.05,0.001807586,558.8266488,0,1.9,,https://doi.org/10.1002/adfm.201001540,H
(BaO)1(ZrO2)0.8(Pr2O3)0.05(Y2O3)0.05,0.001161488,512.3402014,0,1.9,,https://doi.org/10.1002/adfm.201001540,H
(BaO)1(ZrO2)0.8(Pr2O3)0.05(Y2O3)0.05,0.000712455,464.6078087,0,1.9,,https://doi.org/10.1002/adfm.201001540,H
(BaO)1(ZrO2)0.8(Pr2O3)0.05(Y2O3)0.05,0.000400668,416.9564475,0,1.9,,https://doi.org/10.1002/adfm.201001540,H
(BaO)1(ZrO2)0.8(Pr2O3)0.05(Y2O3)0.05,0.000180075,358.2318225,0,1.9,,https://doi.org/10.1002/adfm.201001540,H
(BaO)1(CeO2)0.85(In2O3)0.025(Y2O3)0.05,0.005514701,750.2048237,0,1.9,1,https://doi.org/10.1016/j.ceramint.2019.01.134,H
(BaO)1(CeO2)0.85(In2O3)0.025(Y2O3)0.05,0.00484213,700.0668983,0,1.9,1,https://doi.org/10.1016/j.ceramint.2019.01.134,H
(BaO)1(CeO2)0.85(In2O3)0.025(Y2O3)0.05,0.004233763,650.4828496,0,1.9,1,https://doi.org/10.1016/j.ceramint.2019.01.134,H
(BaO)1(CeO2)0.85(In2O3)0.025(Y2O3)0.05,0.003425081,599.954014,0,1.9,1,https://doi.org/10.1016/j.ceramint.2019.01.134,H
(BaO)1(CeO2)0.85(In2O3)0.025(Y2O3)0.05,0.002621162,550.6505368,0,1.9,1,https://doi.org/10.1016/j.ceramint.2019.01.134,H
(BaO)1(CeO2)0.82(Er2O3)0.045(Sc2O3)0.045,0.000409578,698.9935235,20,0,,https://doi.org/10.1016/j.ijhydene.2014.03.249,H
(BaO)1(CeO2)0.82(Er2O3)0.045(Sc2O3)0.045,0.000385848,674.677478,20,0,,https://doi.org/10.1016/j.ijhydene.2014.03.249,H
(BaO)1(CeO2)0.82(Er2O3)0.045(Sc2O3)0.045,0.000361853,648.6041616,20,0,,https://doi.org/10.1016/j.ijhydene.2014.03.249,H
(BaO)1(CeO2)0.82(Er2O3)0.045(Sc2O3)0.045,0.000346735,623.003397,20,0,,https://doi.org/10.1016/j.ijhydene.2014.03.249,H
(BaO)1(CeO2)0.82(Er2O3)0.045(Sc2O3)0.045,0.000325337,597.911107,20,0,,https://doi.org/10.1016/j.ijhydene.2014.03.249,H
(BaO)1(CeO2)0.82(Er2O3)0.045(Sc2O3)0.045,0.000283881,575.0117087,20,0,,https://doi.org/10.1016/j.ijhydene.2014.03.249,H
(BaO)1(CeO2)0.82(Er2O3)0.045(Sc2O3)0.045,0.00020521,550.1800515,20,0,,https://doi.org/10.1016/j.ijhydene.2014.03.249,H
(BaO)1(CeO2)0.82(Er2O3)0.045(Sc2O3)0.045,0.000181402,523.8155559,20,0,,https://doi.org/10.1016/j.ijhydene.2014.03.249,H
(BaO)1(CeO2)0.82(Er2O3)0.045(Sc2O3)0.045,0.000170586,499.779574,20,0,,https://doi.org/10.1016/j.ijhydene.2014.03.249,H
(BaO)1(CeO2)0.82(Er2O3)0.045(Sc2O3)0.045,0.000152908,475.2256929,20,0,,https://doi.org/10.1016/j.ijhydene.2014.03.249,H
(BaO)1(CeO2)0.82(Er2O3)0.045(Sc2O3)0.045,0.000139455,449.1742617,20,0,,https://doi.org/10.1016/j.ijhydene.2014.03.249,H
(BaO)1(CeO2)0.82(Er2O3)0.045(Sc2O3)0.045,0.000127033,424.8724455,20,0,,https://doi.org/10.1016/j.ijhydene.2014.03.249,H
(BaO)1(CeO2)0.82(Er2O3)0.045(Sc2O3)0.045,0.000115945,400.0652498,20,0,,https://doi.org/10.1016/j.ijhydene.2014.03.249,H
(BaO)1(CeO2)0.82(Er2O3)0.045(Sc2O3)0.045,0.000663082,698.9935235,20,1.9,,https://doi.org/10.1016/j.ijhydene.2014.03.249,H
(BaO)1(CeO2)0.82(Er2O3)0.045(Sc2O3)0.045,0.000624665,674.677478,20,1.9,,https://doi.org/10.1016/j.ijhydene.2014.03.249,H
(BaO)1(CeO2)0.82(Er2O3)0.045(Sc2O3)0.045,0.000615604,648.6041616,20,1.9,,https://doi.org/10.1016/j.ijhydene.2014.03.249,H
(BaO)1(CeO2)0.82(Er2O3)0.045(Sc2O3)0.045,0.000581585,623.003397,20,1.9,,https://doi.org/10.1016/j.ijhydene.2014.03.249,H
(BaO)1(CeO2)0.82(Er2O3)0.045(Sc2O3)0.045,0.00056138,597.911107,20,1.9,,https://doi.org/10.1016/j.ijhydene.2014.03.249,H
(BaO)1(CeO2)0.82(Er2O3)0.045(Sc2O3)0.045,0.000533314,575.0117087,20,1.9,,https://doi.org/10.1016/j.ijhydene.2014.03.249,H
(BaO)1(CeO2)0.82(Er2O3)0.045(Sc2O3)0.045,0.00050106,550.1800515,20,1.9,,https://doi.org/10.1016/j.ijhydene.2014.03.249,H
(BaO)1(CeO2)0.82(Er2O3)0.045(Sc2O3)0.045,0.000482234,523.8155559,20,1.9,,https://doi.org/10.1016/j.ijhydene.2014.03.249,H
(BaO)1(CeO2)0.82(Er2O3)0.045(Sc2O3)0.045,0.000453482,499.779574,20,1.9,,https://doi.org/10.1016/j.ijhydene.2014.03.249,H
(BaO)1(CeO2)0.82(Er2O3)0.045(Sc2O3)0.045,0.000424137,475.2256929,20,1.9,,https://doi.org/10.1016/j.ijhydene.2014.03.249,H
(BaO)1(CeO2)0.82(Er2O3)0.045(Sc2O3)0.045,0.000395132,449.1742617,20,1.9,,https://doi.org/10.1016/j.ijhydene.2014.03.249,H
(BaO)1(CeO2)0.82(Er2O3)0.045(Sc2O3)0.045,0.000370281,424.8724455,20,1.9,,https://doi.org/10.1016/j.ijhydene.2014.03.249,H
(BaO)1(CeO2)0.82(Er2O3)0.045(Sc2O3)0.045,0.000342783,400.0652498,20,1.9,,https://doi.org/10.1016/j.ijhydene.2014.03.249,H
(SrO)0.85(Y2O3)0.05(TiO2)0.95(Ga2O3)0.025,34.18308524,800,1.48198E-12,0,,https://doi.org/10.1016/S0025-5408(02)00774-2,E
(SrO)0.85(Y2O3)0.05(TiO2)0.95(Ga2O3)0.025,34.61355167,800,3.41419E-13,0,,https://doi.org/10.1016/S0025-5408(02)00774-2,E
(SrO)0.85(Y2O3)0.05(TiO2)0.95(Ga2O3)0.025,34.94618482,800,2.95167E-14,0,,https://doi.org/10.1016/S0025-5408(02)00774-2,E
(SrO)0.85(Y2O3)0.05(TiO2)0.95(Ga2O3)0.025,35.61145112,800,2.9721E-15,0,,https://doi.org/10.1016/S0025-5408(02)00774-2,E
(SrO)0.85(Y2O3)0.05(TiO2)0.95(Ga2O3)0.025,36.3745507,800,5.48309E-16,0,,https://doi.org/10.1016/S0025-5408(02)00774-2,E
(SrO)0.85(Y2O3)0.05(TiO2)0.95(Ga2O3)0.025,37.15721693,800,2.84747E-17,0,,https://doi.org/10.1016/S0025-5408(02)00774-2,E
(SrO)0.85(Y2O3)0.05(TiO2)0.95(Ga2O3)0.025,38.03771645,800,5.93463E-18,0,,https://doi.org/10.1016/S0025-5408(02)00774-2,E
(SrO)0.85(Y2O3)0.05(TiO2)0.95(V2O3)0.025,27.6869555,800,1.44374E-12,0,,https://doi.org/10.1016/S0025-5408(02)00774-2,E
(SrO)0.85(Y2O3)0.05(TiO2)0.95(V2O3)0.025,29.99582089,800,3.58177E-13,0,,https://doi.org/10.1016/S0025-5408(02)00774-2,E
(SrO)0.85(Y2O3)0.05(TiO2)0.95(V2O3)0.025,31.99161979,800,3.02984E-14,0,,https://doi.org/10.1016/S0025-5408(02)00774-2,E
(SrO)0.85(Y2O3)0.05(TiO2)0.95(V2O3)0.025,34.73095161,800,2.9721E-15,0,,https://doi.org/10.1016/S0025-5408(02)00774-2,E
(SrO)0.85(Y2O3)0.05(TiO2)0.95(V2O3)0.025,35.82668434,800,5.48309E-16,0,,https://doi.org/10.1016/S0025-5408(02)00774-2,E
(SrO)0.85(Y2O3)0.05(TiO2)0.95(V2O3)0.025,36.82458378,800,2.91017E-17,0,,https://doi.org/10.1016/S0025-5408(02)00774-2,E
(SrO)0.85(Y2O3)0.05(TiO2)0.95(V2O3)0.025,37.47028343,800,6.09179E-18,0,,https://doi.org/10.1016/S0025-5408(02)00774-2,E
(SrO)0.85(Y2O3)0.05(TiO2)0.95(Al2O3)0.025,30.32845404,800,3.02984E-14,0,,https://doi.org/10.1016/S0025-5408(02)00774-2,E
(SrO)0.85(Y2O3)0.05(TiO2)0.95(Al2O3)0.025,31.65898664,800,2.75995E-15,0,,https://doi.org/10.1016/S0025-5408(02)00774-2,E
(SrO)0.85(Y2O3)0.05(TiO2)0.95(Al2O3)0.025,32.08945307,800,5.75223E-16,0,,https://doi.org/10.1016/S0025-5408(02)00774-2,E
(SrO)0.85(Y2O3)0.05(TiO2)0.95(Al2O3)0.025,32.206853,800,2.84747E-17,0,,https://doi.org/10.1016/S0025-5408(02)00774-2,E
(SrO)0.85(Y2O3)0.05(TiO2)0.95(Al2O3)0.025,32.85255265,800,5.93463E-18,0,,https://doi.org/10.1016/S0025-5408(02)00774-2,E
(SrO)0.85(Y2O3)0.05(TiO2)0.95(Mn2O3)0.025,30.11322083,800,1.52122E-12,0,,https://doi.org/10.1016/S0025-5408(02)00774-2,E
(SrO)0.85(Y2O3)0.05(TiO2)0.95(Mn2O3)0.025,29.78058768,800,3.5046E-13,0,,https://doi.org/10.1016/S0025-5408(02)00774-2,E
(SrO)0.85(Y2O3)0.05(TiO2)0.95(Mn2O3)0.025,29.44795453,800,3.02984E-14,0,,https://doi.org/10.1016/S0025-5408(02)00774-2,E
(SrO)0.85(Y2O3)0.05(TiO2)0.95(Mn2O3)0.025,29.23272131,800,2.82073E-15,0,,https://doi.org/10.1016/S0025-5408(02)00774-2,E
(SrO)0.85(Y2O3)0.05(TiO2)0.95(Mn2O3)0.025,29.44795453,800,5.48309E-16,0,,https://doi.org/10.1016/S0025-5408(02)00774-2,E
(SrO)0.85(Y2O3)0.05(TiO2)0.95(Mn2O3)0.025,29.89798761,800,2.98724E-17,0,,https://doi.org/10.1016/S0025-5408(02)00774-2,E
(SrO)0.85(Y2O3)0.05(TiO2)0.95(Mn2O3)0.025,30.23062076,800,6.22593E-18,0,,https://doi.org/10.1016/S0025-5408(02)00774-2,E
(SrO)0.85(Y2O3)0.05(TiO2)0.95(Fe2O3)0.025,20.87775927,800,1.48198E-12,0,,https://doi.org/10.1016/S0025-5408(02)00774-2,E
(SrO)0.85(Y2O3)0.05(TiO2)0.95(Fe2O3)0.025,20.77992599,800,3.5046E-13,0,,https://doi.org/10.1016/S0025-5408(02)00774-2,E
(SrO)0.85(Y2O3)0.05(TiO2)0.95(Fe2O3)0.025,20.54512612,800,3.02984E-14,0,,https://doi.org/10.1016/S0025-5408(02)00774-2,E
(SrO)0.85(Y2O3)0.05(TiO2)0.95(Fe2O3)0.025,19.33199345,800,2.89542E-15,0,,https://doi.org/10.1016/S0025-5408(02)00774-2,E
(SrO)0.85(Y2O3)0.05(TiO2)0.95(Fe2O3)0.025,19.01892696,800,5.62829E-16,0,,https://doi.org/10.1016/S0025-5408(02)00774-2,E
(SrO)0.85(Y2O3)0.05(TiO2)0.95(Fe2O3)0.025,16.04479527,800,2.98724E-17,0,,https://doi.org/10.1016/S0025-5408(02)00774-2,E
(SrO)0.85(Y2O3)0.05(TiO2)0.95(Fe2O3)0.025,14.40119618,800,6.3908E-18,0,,https://doi.org/10.1016/S0025-5408(02)00774-2,E
(La2O3)0.45(SrO)0.1(Ga2O3)0.475(Cr2O3)0.025,2.9e-3,860,2.00E+01,0,1,10.1.1.983.5883,O
(La2O3)0.45(SrO)0.1(Ga2O3)0.475(Cr2O3)0.025,4.1e-3,900,2.00E+01,0,1,10.1.1.983.5883,O
(La2O3)0.45(SrO)0.1(Ga2O3)0.475(Cr2O3)0.025,8.4e-3,1000,2.00E+01,0,1,10.1.1.983.5883,O
(La2O3)0.45(SrO)0.1(Ga2O3)0.475(Fe2O3)0.025,2.9e-3,860,2.00E+01,0,1,10.1.1.983.5883,O
(La2O3)0.45(SrO)0.1(Ga2O3)0.475(Fe2O3)0.025,6.4e-3,900,2.00E+01,0,1,10.1.1.983.5883,O
(La2O3)0.45(SrO)0.1(Ga2O3)0.475(Fe2O3)0.025,8.1e-3,1000,2.00E+01,0,1,10.1.1.983.5883,O