Composition,Conductivity (S/cm),Temperature (degC),PO2 (%),PH2O (%),Grainsize,Ref,Carrier Type
(SrO)0.575(La2O3)0.1(TiO2)0.75(NbO2)0.25,1.103945166,930,3.47908929,0,,https://doi.org/10.1039/A702865B,E
(SrO)0.575(La2O3)0.1(TiO2)0.75(NbO2)0.25,0.953700474,930,22.44561978,0,,https://doi.org/10.1039/A702865B,E
(SrO)0.575(La2O3)0.1(TiO2)0.75(NbO2)0.25,0.848300119,930,112.9582261,0,,https://doi.org/10.1039/A702865B,E
(La2O3)0.45(SrO)0.1(YbO)0.5(Y2O3)0.25,3.28684E-05,500,0,1.9,,https://doi.org/10.1016/j.ssi.2013.11.044,O
(La2O3)0.45(SrO)0.1(YbO)0.5(Y2O3)0.25,0.000104745,600,0,1.9,,https://doi.org/10.1016/j.ssi.2013.11.044,O
(La2O3)0.45(SrO)0.1(YbO)0.5(Y2O3)0.25,0.000219929,700,0,1.9,,https://doi.org/10.1016/j.ssi.2013.11.044,O
(La2O3)0.45(SrO)0.1(YbO)0.5(Y2O3)0.25,0.000401816,800,0,1.9,,https://doi.org/10.1016/j.ssi.2013.11.044,O
(La2O3)0.45(SrO)0.1(YbO)0.5(Y2O3)0.25,0.000669119,900,0,1.9,,https://doi.org/10.1016/j.ssi.2013.11.044,O
(La2O3)0.45(SrO)0.1(YbO)0.5(In2O3)0.25,0.000131826,400,0,1.9,,https://doi.org/10.1016/j.ssi.2013.11.044,O+H
(La2O3)0.45(SrO)0.1(YbO)0.5(In2O3)0.25,0.001,500,0,1.9,,https://doi.org/10.1016/j.ssi.2013.11.044,O+H
(La2O3)0.45(SrO)0.1(YbO)0.5(In2O3)0.25,0.002398833,600,0,1.9,,https://doi.org/10.1016/j.ssi.2013.11.044,O+H
(La2O3)0.45(SrO)0.1(YbO)0.5(In2O3)0.25,0.003311311,800,0,1.9,,https://doi.org/10.1016/j.ssi.2013.11.044,O
(La2O3)0.45(SrO)0.1(YbO)0.5(In2O3)0.25,0.004786301,900,0,1.9,,https://doi.org/10.1016/j.ssi.2013.11.044,O
(BaO)0.9(La2O3)0.05(SnO2)0.5(In2O3)0.25,0.005271338,799.003301,20,1.9,,https://doi.org/10.1016/j.ssi.2017.05.010,H+E
(BaO)0.9(La2O3)0.05(SnO2)0.5(In2O3)0.25,0.003931726,744.2278778,20,1.9,,https://doi.org/10.1016/j.ssi.2017.05.010,H+E
(BaO)0.9(La2O3)0.05(SnO2)0.5(In2O3)0.25,0.002726201,694.8140367,20,1.9,,https://doi.org/10.1016/j.ssi.2017.05.010,H+E
(BaO)0.9(La2O3)0.05(SnO2)0.5(In2O3)0.25,0.001885847,649.978542,20,1.9,,https://doi.org/10.1016/j.ssi.2017.05.010,H+E
(BaO)0.9(La2O3)0.05(SnO2)0.5(In2O3)0.25,0.001225548,601.3647562,20,1.9,,https://doi.org/10.1016/j.ssi.2017.05.010,H+E
(BaO)0.9(La2O3)0.05(SnO2)0.5(In2O3)0.25,0.000805639,547.3087998,20,1.9,,https://doi.org/10.1016/j.ssi.2017.05.010,H+E
(BaO)0.9(La2O3)0.05(SnO2)0.5(In2O3)0.25,0.000566027,499.5245317,20,1.9,,https://doi.org/10.1016/j.ssi.2017.05.010,H+E
(BaO)0.9(La2O3)0.05(SnO2)0.5(In2O3)0.25,0.000401418,449.0276805,20,1.9,,https://doi.org/10.1016/j.ssi.2017.05.010,H+E
(BaO)0.9(La2O3)0.05(SnO2)0.5(In2O3)0.25,0.00023138,400.1790739,20,1.9,,https://doi.org/10.1016/j.ssi.2017.05.010,H+E
(BaO)0.9(La2O3)0.05(SnO2)0.5(In2O3)0.25,0.000144585,349.5886074,20,1.9,,https://doi.org/10.1016/j.ssi.2017.05.010,H+E
(BaO)0.9(Gd2O3)0.05(SnO2)0.5(In2O3)0.25,0.012979152,802.9493671,20,1.9,,https://doi.org/10.1016/j.ssi.2017.05.010,H+E
(BaO)0.9(Gd2O3)0.05(SnO2)0.5(In2O3)0.25,0.008364679,747.5831904,20,1.9,,https://doi.org/10.1016/j.ssi.2017.05.010,H+E
(BaO)0.9(Gd2O3)0.05(SnO2)0.5(In2O3)0.25,0.005011485,697.6362153,20,1.9,,https://doi.org/10.1016/j.ssi.2017.05.010,H+E
(BaO)0.9(Gd2O3)0.05(SnO2)0.5(In2O3)0.25,0.003447552,652.3499222,20,1.9,,https://doi.org/10.1016/j.ssi.2017.05.010,H+E
(BaO)0.9(Gd2O3)0.05(SnO2)0.5(In2O3)0.25,0.002074411,603.2886598,20,1.9,,https://doi.org/10.1016/j.ssi.2017.05.010,H+E
(BaO)0.9(Gd2O3)0.05(SnO2)0.5(In2O3)0.25,0.001255121,552.2427184,20,1.9,,https://doi.org/10.1016/j.ssi.2017.05.010,H+E
(BaO)0.9(Gd2O3)0.05(SnO2)0.5(In2O3)0.25,0.000818344,500.7321196,20,1.9,,https://doi.org/10.1016/j.ssi.2017.05.010,H+E
(BaO)0.9(Gd2O3)0.05(SnO2)0.5(In2O3)0.25,0.000284372,400.8391846,20,1.9,,https://doi.org/10.1016/j.ssi.2017.05.010,H+E
(BaO)0.9(Gd2O3)0.05(SnO2)0.5(In2O3)0.25,0.000141923,350.0366492,20,1.9,,https://doi.org/10.1016/j.ssi.2017.05.010,H+E
(La2O3)0.35(SrO)0.3(Ga2O3)0.375(MgO)0.25,0.122,800,1.00E-03,0,,https://doi.org/10.1111/j.1151-2916.1998.tb02662.x,O
(La2O3)0.35(SrO)0.3(Ga2O3)0.375(MgO)0.25,0.053,702,1.00E-03,0,,https://doi.org/10.1111/j.1151-2916.1998.tb02662.x,O
(La2O3)0.35(SrO)0.3(Ga2O3)0.375(MgO)0.25,0.015,595,1.00E-03,0,,https://doi.org/10.1111/j.1151-2916.1998.tb02662.x,O
(La2O3)0.375(SrO)0.25(Ga2O3)0.375(MgO)0.25,0.128,800,1.00E-03,0,,https://doi.org/10.1111/j.1151-2916.1998.tb02662.x,O
(La2O3)0.375(SrO)0.25(Ga2O3)0.375(MgO)0.25,0.062,702,1.00E-03,0,,https://doi.org/10.1111/j.1151-2916.1998.tb02662.x,O
(La2O3)0.375(SrO)0.25(Ga2O3)0.375(MgO)0.25,0.017,595,1.00E-03,0,,https://doi.org/10.1111/j.1151-2916.1998.tb02662.x,O
(La2O3)0.4(SrO)0.2(Ga2O3)0.375(MgO)0.25,0.14,800,1.00E-03,0,,https://doi.org/10.1111/j.1151-2916.1998.tb02662.x,O
(La2O3)0.4(SrO)0.2(Ga2O3)0.375(MgO)0.25,0.064,702,1.00E-03,0,,https://doi.org/10.1111/j.1151-2916.1998.tb02662.x,O
(La2O3)0.4(SrO)0.2(Ga2O3)0.375(MgO)0.25,0.019,595,1.00E-03,0,,https://doi.org/10.1111/j.1151-2916.1998.tb02662.x,O
(La2O3)0.425(SrO)0.15(Ga2O3)0.375(MgO)0.25,0.139,800,1.00E-03,0,,https://doi.org/10.1111/j.1151-2916.1998.tb02662.x,O
(La2O3)0.425(SrO)0.15(Ga2O3)0.375(MgO)0.25,0.062,702,1.00E-03,0,,https://doi.org/10.1111/j.1151-2916.1998.tb02662.x,O
(La2O3)0.425(SrO)0.15(Ga2O3)0.375(MgO)0.25,0.017,595,1.00E-03,0,,https://doi.org/10.1111/j.1151-2916.1998.tb02662.x,O
(La2O3)0.45(SrO)0.1(Ga2O3)0.375(MgO)0.25,0.132,800,1.00E-03,0,,https://doi.org/10.1111/j.1151-2916.1998.tb02662.x,O
(La2O3)0.45(SrO)0.1(Ga2O3)0.375(MgO)0.25,0.055,702,1.00E-03,0,,https://doi.org/10.1111/j.1151-2916.1998.tb02662.x,O
(La2O3)0.45(SrO)0.1(Ga2O3)0.375(MgO)0.25,0.014,595,1.00E-03,0,,https://doi.org/10.1111/j.1151-2916.1998.tb02662.x,O
(La2O3)0.475(SrO)0.05(Ga2O3)0.375(MgO)0.25,0.094,800,1.00E-03,0,,https://doi.org/10.1111/j.1151-2916.1998.tb02662.x,O
(La2O3)0.475(SrO)0.05(Ga2O3)0.375(MgO)0.25,0.04,702,1.00E-03,0,,https://doi.org/10.1111/j.1151-2916.1998.tb02662.x,O
(La2O3)0.475(SrO)0.05(Ga2O3)0.375(MgO)0.25,0.009,595,1.00E-03,0,,https://doi.org/10.1111/j.1151-2916.1998.tb02662.x,O
(La2O3)0.11875(SrO)0.7125(Mn2O3)0.25(Ti2O3)0.25,3.363636364,950,7.01704E-17,0,,https://doi.org/10.1016/j.ssi.2013.01.005,E
(La2O3)0.11875(SrO)0.7125(Mn2O3)0.25(Ti2O3)0.25,3.727272727,950,1.4251E-16,0,,https://doi.org/10.1016/j.ssi.2013.01.005,E
(La2O3)0.11875(SrO)0.7125(Mn2O3)0.25(Ti2O3)0.25,4.090909091,950,2.89427E-16,0,,https://doi.org/10.1016/j.ssi.2013.01.005,E
(La2O3)0.11875(SrO)0.7125(Mn2O3)0.25(Ti2O3)0.25,4.454545455,950,8.37678E-16,0,,https://doi.org/10.1016/j.ssi.2013.01.005,E
(La2O3)0.11875(SrO)0.7125(Mn2O3)0.25(Ti2O3)0.25,4.909090909,950,2.42446E-15,0,,https://doi.org/10.1016/j.ssi.2013.01.005,E
(La2O3)0.11875(SrO)0.7125(Mn2O3)0.25(Ti2O3)0.25,5.181818182,950,1E-14,0,,https://doi.org/10.1016/j.ssi.2013.01.005,E
(La2O3)0.11875(SrO)0.7125(Mn2O3)0.25(Ti2O3)0.25,5.545454545,950,4.12463E-14,0,,https://doi.org/10.1016/j.ssi.2013.01.005,E
(La2O3)0.11875(SrO)0.7125(Mn2O3)0.25(Ti2O3)0.25,5.909090909,950,2.42446E-13,0,,https://doi.org/10.1016/j.ssi.2013.01.005,E
(La2O3)0.11875(SrO)0.7125(Mn2O3)0.25(Ti2O3)0.25,6.272727273,950,1E-12,0,,https://doi.org/10.1016/j.ssi.2013.01.005,E
(La2O3)0.11875(SrO)0.7125(Mn2O3)0.25(Ti2O3)0.25,6.818181818,950,4.12463E-12,0,,https://doi.org/10.1016/j.ssi.2013.01.005,E
(La2O3)0.11875(SrO)0.7125(Mn2O3)0.25(Ti2O3)0.25,7.545454545,950,2.42446E-11,0,,https://doi.org/10.1016/j.ssi.2013.01.005,E
(La2O3)0.11875(SrO)0.7125(Mn2O3)0.25(Ti2O3)0.25,7.909090909,950,4.92388E-11,0,,https://doi.org/10.1016/j.ssi.2013.01.005,E
(La2O3)0.11875(SrO)0.7125(Mn2O3)0.25(Ti2O3)0.25,9.818181818,950,2.03092E-10,0,,https://doi.org/10.1016/j.ssi.2013.01.005,E
(La2O3)0.11875(SrO)0.7125(Mn2O3)0.25(Ti2O3)0.25,11.36363636,950,4.12463E-10,0,,https://doi.org/10.1016/j.ssi.2013.01.005,E
(La2O3)0.11875(SrO)0.7125(Mn2O3)0.25(Ti2O3)0.25,11.72727273,950,3.45511E-09,0,,https://doi.org/10.1016/j.ssi.2013.01.005,E
(La2O3)0.11875(SrO)0.7125(Mn2O3)0.25(Ti2O3)0.25,11.72727273,950,4.12463E-08,0,,https://doi.org/10.1016/j.ssi.2013.01.005,E
(La2O3)0.11875(SrO)0.7125(Mn2O3)0.25(Ti2O3)0.25,11.72727273,950,1.70125E-07,0,,https://doi.org/10.1016/j.ssi.2013.01.005,E
(La2O3)0.11875(SrO)0.7125(Mn2O3)0.25(Ti2O3)0.25,11.72727273,950,2.03092E-06,0,,https://doi.org/10.1016/j.ssi.2013.01.005,E
(La2O3)0.11875(SrO)0.7125(Mn2O3)0.25(Ti2O3)0.25,11.81818182,950,3.45511E-05,0,,https://doi.org/10.1016/j.ssi.2013.01.005,E
(La2O3)0.11875(SrO)0.7125(Mn2O3)0.25(Ti2O3)0.25,11.81818182,950,0.000289427,0,,https://doi.org/10.1016/j.ssi.2013.01.005,E
(La2O3)0.11875(SrO)0.7125(Mn2O3)0.25(Ti2O3)0.25,11.81818182,950,0.002424462,0,,https://doi.org/10.1016/j.ssi.2013.01.005,E
(La2O3)0.11875(SrO)0.7125(Mn2O3)0.25(Ti2O3)0.25,11.81818182,950,0.041246264,0,,https://doi.org/10.1016/j.ssi.2013.01.005,E
(La2O3)0.11875(SrO)0.7125(Mn2O3)0.25(Ti2O3)0.25,11.81818182,950,0.701703829,0,,https://doi.org/10.1016/j.ssi.2013.01.005,E
(La2O3)0.11875(SrO)0.7125(Mn2O3)0.25(Ti2O3)0.25,11.81818182,950,24.24462017,0,,https://doi.org/10.1016/j.ssi.2013.01.005,E
(La2O3)0.11875(SrO)0.7125(Mn2O3)0.25(Ti2O3)0.25,9.307692308,800,6.45842E-16,0,,https://doi.org/10.1016/j.ssi.2013.01.005,E
(La2O3)0.11875(SrO)0.7125(Mn2O3)0.25(Ti2O3)0.25,12.07692308,800,1.64131E-15,0,,https://doi.org/10.1016/j.ssi.2013.01.005,E
(La2O3)0.11875(SrO)0.7125(Mn2O3)0.25(Ti2O3)0.25,12.30769231,800,4.29449E-14,0,,https://doi.org/10.1016/j.ssi.2013.01.005,E
(La2O3)0.11875(SrO)0.7125(Mn2O3)0.25(Ti2O3)0.25,12.53846154,800,1.12365E-12,0,,https://doi.org/10.1016/j.ssi.2013.01.005,E
(La2O3)0.11875(SrO)0.7125(Mn2O3)0.25(Ti2O3)0.25,12.53846154,800,4.6869E-11,0,,https://doi.org/10.1016/j.ssi.2013.01.005,E
(La2O3)0.11875(SrO)0.7125(Mn2O3)0.25(Ti2O3)0.25,12.53846154,800,4.96824E-09,0,,https://doi.org/10.1016/j.ssi.2013.01.005,E
(La2O3)0.11875(SrO)0.7125(Mn2O3)0.25(Ti2O3)0.25,12.53846154,800,2.07231E-07,0,,https://doi.org/10.1016/j.ssi.2013.01.005,E
(La2O3)0.11875(SrO)0.7125(Mn2O3)0.25(Ti2O3)0.25,12.53846154,800,1.37797E-05,0,,https://doi.org/10.1016/j.ssi.2013.01.005,E
(La2O3)0.11875(SrO)0.7125(Mn2O3)0.25(Ti2O3)0.25,12.53846154,800,0.000916274,0,,https://doi.org/10.1016/j.ssi.2013.01.005,E
(La2O3)0.11875(SrO)0.7125(Mn2O3)0.25(Ti2O3)0.25,12.53846154,800,0.097127402,0,,https://doi.org/10.1016/j.ssi.2013.01.005,E
(La2O3)0.11875(SrO)0.7125(Mn2O3)0.25(Ti2O3)0.25,12.53846154,800,41.71124612,0,,https://doi.org/10.1016/j.ssi.2013.01.005,E
(La2O3)0.26125(SrO)0.4275(Mn2O3)0.25(Ti2O3)0.25,4.454545455,950,2.89427E-16,0,,https://doi.org/10.1016/j.ssi.2013.01.005,E
(La2O3)0.26125(SrO)0.4275(Mn2O3)0.25(Ti2O3)0.25,4.818181818,950,8.37678E-16,0,,https://doi.org/10.1016/j.ssi.2013.01.005,E
(La2O3)0.26125(SrO)0.4275(Mn2O3)0.25(Ti2O3)0.25,5.181818182,950,1.70125E-15,0,,https://doi.org/10.1016/j.ssi.2013.01.005,E
(La2O3)0.26125(SrO)0.4275(Mn2O3)0.25(Ti2O3)0.25,5.545454545,950,7.01704E-15,0,,https://doi.org/10.1016/j.ssi.2013.01.005,E
(La2O3)0.26125(SrO)0.4275(Mn2O3)0.25(Ti2O3)0.25,8.272727273,950,1.19378E-13,0,,https://doi.org/10.1016/j.ssi.2013.01.005,E
(La2O3)0.26125(SrO)0.4275(Mn2O3)0.25(Ti2O3)0.25,8.454545455,950,1E-12,0,,https://doi.org/10.1016/j.ssi.2013.01.005,E
(La2O3)0.26125(SrO)0.4275(Mn2O3)0.25(Ti2O3)0.25,8.727272727,950,1.70125E-11,0,,https://doi.org/10.1016/j.ssi.2013.01.005,E
(La2O3)0.26125(SrO)0.4275(Mn2O3)0.25(Ti2O3)0.25,8.636363636,950,2.03092E-10,0,,https://doi.org/10.1016/j.ssi.2013.01.005,E
(La2O3)0.26125(SrO)0.4275(Mn2O3)0.25(Ti2O3)0.25,8.636363636,950,2.03092E-08,0,,https://doi.org/10.1016/j.ssi.2013.01.005,E
(La2O3)0.26125(SrO)0.4275(Mn2O3)0.25(Ti2O3)0.25,8.636363636,950,3.45511E-07,0,,https://doi.org/10.1016/j.ssi.2013.01.005,E
(La2O3)0.26125(SrO)0.4275(Mn2O3)0.25(Ti2O3)0.25,8.636363636,950,2.42446E-05,0,,https://doi.org/10.1016/j.ssi.2013.01.005,E
(La2O3)0.26125(SrO)0.4275(Mn2O3)0.25(Ti2O3)0.25,8.636363636,950,0.001193777,0,,https://doi.org/10.1016/j.ssi.2013.01.005,E
(La2O3)0.26125(SrO)0.4275(Mn2O3)0.25(Ti2O3)0.25,8.727272727,950,0.041246264,0,,https://doi.org/10.1016/j.ssi.2013.01.005,E
(La2O3)0.26125(SrO)0.4275(Mn2O3)0.25(Ti2O3)0.25,8.727272727,950,0.492388263,0,,https://doi.org/10.1016/j.ssi.2013.01.005,E
(La2O3)0.26125(SrO)0.4275(Mn2O3)0.25(Ti2O3)0.25,8.727272727,950,11.93776642,0,,https://doi.org/10.1016/j.ssi.2013.01.005,E
(La2O3)0.26125(SrO)0.4275(Mn2O3)0.25(Ti2O3)0.25,8.636363636,950,70.17038287,0,,https://doi.org/10.1016/j.ssi.2013.01.005,E
(La2O3)0.26125(SrO)0.4275(Mn2O3)0.25(Ti2O3)0.25,3.076923077,800,1.54837E-17,0,,https://doi.org/10.1016/j.ssi.2013.01.005,E
(La2O3)0.26125(SrO)0.4275(Mn2O3)0.25(Ti2O3)0.25,5.384615385,800,3.93493E-17,0,,https://doi.org/10.1016/j.ssi.2013.01.005,E
(La2O3)0.26125(SrO)0.4275(Mn2O3)0.25(Ti2O3)0.25,6.538461538,800,1E-16,0,,https://doi.org/10.1016/j.ssi.2013.01.005,E
(La2O3)0.26125(SrO)0.4275(Mn2O3)0.25(Ti2O3)0.25,6.769230769,800,1.64131E-15,0,,https://doi.org/10.1016/j.ssi.2013.01.005,E
(La2O3)0.26125(SrO)0.4275(Mn2O3)0.25(Ti2O3)0.25,7,800,2.69389E-14,0,,https://doi.org/10.1016/j.ssi.2013.01.005,E
(La2O3)0.26125(SrO)0.4275(Mn2O3)0.25(Ti2O3)0.25,7.230769231,800,1.12365E-12,0,,https://doi.org/10.1016/j.ssi.2013.01.005,E
(La2O3)0.26125(SrO)0.4275(Mn2O3)0.25(Ti2O3)0.25,7.230769231,800,1.84426E-11,0,,https://doi.org/10.1016/j.ssi.2013.01.005,E
(La2O3)0.26125(SrO)0.4275(Mn2O3)0.25(Ti2O3)0.25,7.230769231,800,7.69265E-10,0,,https://doi.org/10.1016/j.ssi.2013.01.005,E
(La2O3)0.26125(SrO)0.4275(Mn2O3)0.25(Ti2O3)0.25,7.230769231,800,5.58259E-05,0,,https://doi.org/10.1016/j.ssi.2013.01.005,E
(La2O3)0.26125(SrO)0.4275(Mn2O3)0.25(Ti2O3)0.25,7,800,0.000916274,0,,https://doi.org/10.1016/j.ssi.2013.01.005,E
(La2O3)0.26125(SrO)0.4275(Mn2O3)0.25(Ti2O3)0.25,7,800,0.015038869,0,,https://doi.org/10.1016/j.ssi.2013.01.005,E
(La2O3)0.26125(SrO)0.4275(Mn2O3)0.25(Ti2O3)0.25,7,800,0.154836526,0,,https://doi.org/10.1016/j.ssi.2013.01.005,E
(La2O3)0.26125(SrO)0.4275(Mn2O3)0.25(Ti2O3)0.25,7,800,4.051304969,0,,https://doi.org/10.1016/j.ssi.2013.01.005,E
(La2O3)0.26125(SrO)0.4275(Mn2O3)0.25(Ti2O3)0.25,7,800,41.71124612,0,,https://doi.org/10.1016/j.ssi.2013.01.005,E
(La2O3)0.35(CaO)0.3(Cr2O3)0.25(Ti2O3)0.25,0.026894733,926.9283207,0,0,,https://doi.org/10.1016/S0167-2738(98)00428-7,E
(La2O3)0.35(CaO)0.3(Cr2O3)0.25(Ti2O3)0.25,0.020937265,752.3708176,0,0,,https://doi.org/10.1016/S0167-2738(98)00428-7,E
(La2O3)0.35(CaO)0.3(Cr2O3)0.25(Ti2O3)0.25,0.016308613,645.5080806,0,0,,https://doi.org/10.1016/S0167-2738(98)00428-7,E
(La2O3)0.35(CaO)0.3(Cr2O3)0.25(Ti2O3)0.25,0.012700845,552.3162571,0,0,,https://doi.org/10.1016/S0167-2738(98)00428-7,E
(La2O3)0.35(CaO)0.3(Cr2O3)0.25(Ti2O3)0.25,0.009420392,498.2007706,0,0,,https://doi.org/10.1016/S0167-2738(98)00428-7,E
(La2O3)0.35(CaO)0.3(Cr2O3)0.25(Ti2O3)0.25,0.006637212,404.3400034,0,0,,https://doi.org/10.1016/S0167-2738(98)00428-7,E
(La2O3)0.35(CaO)0.3(Cr2O3)0.25(Ti2O3)0.25,0.004231408,314.0861297,0,0,,https://doi.org/10.1016/S0167-2738(98)00428-7,E
(La2O3)0.35(CaO)0.3(Cr2O3)0.25(Ti2O3)0.25,0.001996754,198.8139571,0,0,,https://doi.org/10.1016/S0167-2738(98)00428-7,E
(La2O3)0.35(CaO)0.3(Cr2O3)0.25(Ti2O3)0.25,0.001276094,176.7739131,0,0,,https://doi.org/10.1016/S0167-2738(98)00428-7,E
(La2O3)0.35(CaO)0.3(Cr2O3)0.25(Ti2O3)0.25,0.000664863,105.8511588,0,0,,https://doi.org/10.1016/S0167-2738(98)00428-7,E
(La2O3)0.35(CaO)0.3(Cr2O3)0.25(Ti2O3)0.25,0.000572223,95.29512812,0,0,,https://doi.org/10.1016/S0167-2738(98)00428-7,E
(La2O3)0.35(CaO)0.3(Cr2O3)0.25(Ti2O3)0.25,0.000283786,47.31467437,0,0,,https://doi.org/10.1016/S0167-2738(98)00428-7,E
(La2O3)0.35(CaO)0.3(Cr2O3)0.25(Ti2O3)0.25,0.000210173,31.62644932,0,0,,https://doi.org/10.1016/S0167-2738(98)00428-7,E
(Bi2O3)0.35(SrO)0.3(Fe2O3)0.25(Mn2O3)0.25,16.01568264,848.2121212,20,0,,https://doi.org/10.1016/j.ssi.2013.09.056,O+E
(Bi2O3)0.35(SrO)0.3(Fe2O3)0.25(Mn2O3)0.25,13.6887451,796.3641618,20,0,,https://doi.org/10.1016/j.ssi.2013.09.056,O+E
(Bi2O3)0.35(SrO)0.3(Fe2O3)0.25(Mn2O3)0.25,12.99081397,749.0994475,20,0,,https://doi.org/10.1016/j.ssi.2013.09.056,O+E
(Bi2O3)0.35(SrO)0.3(Fe2O3)0.25(Mn2O3)0.25,12.32846739,700.6842105,20,0,,https://doi.org/10.1016/j.ssi.2013.09.056,O+E
(Bi2O3)0.35(SrO)0.3(Fe2O3)0.25(Mn2O3)0.25,10.53724973,652,20,0,,https://doi.org/10.1016/j.ssi.2013.09.056,O+E
(Bi2O3)0.35(SrO)0.3(Fe2O3)0.25(Mn2O3)0.25,9.006280202,599.6415094,20,0,,https://doi.org/10.1016/j.ssi.2013.09.056,O+E
(Bi2O3)0.35(SrO)0.3(Fe2O3)0.25(Mn2O3)0.25,7.697747057,549.2222222,20,0,,https://doi.org/10.1016/j.ssi.2013.09.056,O+E
(Bi2O3)0.35(SrO)0.3(Fe2O3)0.25(Mn2O3)0.25,6.243879966,501.0585774,20,0,,https://doi.org/10.1016/j.ssi.2013.09.056,O+E
(Bi2O3)0.35(SrO)0.3(Fe2O3)0.25(Mn2O3)0.25,4.806380863,449.65625,20,0,,https://doi.org/10.1016/j.ssi.2013.09.056,O+E
(Bi2O3)0.35(SrO)0.3(Fe2O3)0.25(Mn2O3)0.25,3.699830414,399.7272727,20,0,,https://doi.org/10.1016/j.ssi.2013.09.056,O+E
(Bi2O3)0.35(SrO)0.3(Fe2O3)0.25(Mn2O3)0.25,2.848035868,352,20,0,,https://doi.org/10.1016/j.ssi.2013.09.056,O+E
(Bi2O3)0.35(SrO)0.3(Fe2O3)0.25(Mn2O3)0.25,1.974488213,301.5341615,20,0,,https://doi.org/10.1016/j.ssi.2013.09.056,O+E
(Bi2O3)0.35(SrO)0.3(Fe2O3)0.25(Mn2O3)0.25,7.564633276,800,6.50269E-07,0,,https://doi.org/10.1016/j.ssi.2013.09.056,O+E
(Bi2O3)0.35(SrO)0.3(Fe2O3)0.25(Mn2O3)0.25,8.111308308,800,1.74381E-06,0,,https://doi.org/10.1016/j.ssi.2013.09.056,O+E
(Bi2O3)0.35(SrO)0.3(Fe2O3)0.25(Mn2O3)0.25,7.833203223,800,3.51868E-06,0,,https://doi.org/10.1016/j.ssi.2013.09.056,O+E
(Bi2O3)0.35(SrO)0.3(Fe2O3)0.25(Mn2O3)0.25,8.399287059,800,9.43596E-06,0,,https://doi.org/10.1016/j.ssi.2013.09.056,O+E
(Bi2O3)0.35(SrO)0.3(Fe2O3)0.25(Mn2O3)0.25,8.399287059,800,2.52503E-05,0,,https://doi.org/10.1016/j.ssi.2013.09.056,O+E
(Bi2O3)0.35(SrO)0.3(Fe2O3)0.25(Mn2O3)0.25,8.399287059,800,5.87055E-05,0,,https://doi.org/10.1016/j.ssi.2013.09.056,O+E
(Bi2O3)0.35(SrO)0.3(Fe2O3)0.25(Mn2O3)0.25,8.399287059,800,0.000136487,0,,https://doi.org/10.1016/j.ssi.2013.09.056,O+E
(Bi2O3)0.35(SrO)0.3(Fe2O3)0.25(Mn2O3)0.25,9.006280202,800,0.000366014,0,,https://doi.org/10.1016/j.ssi.2013.09.056,O+E
(Bi2O3)0.35(SrO)0.3(Fe2O3)0.25(Mn2O3)0.25,9.006280202,800,0.000739335,0,,https://doi.org/10.1016/j.ssi.2013.09.056,O+E
(Bi2O3)0.35(SrO)0.3(Fe2O3)0.25(Mn2O3)0.25,9.657139053,800,0.001722577,0,,https://doi.org/10.1016/j.ssi.2013.09.056,O+E
(Bi2O3)0.35(SrO)0.3(Fe2O3)0.25(Mn2O3)0.25,10,800,0.00400916,0,,https://doi.org/10.1016/j.ssi.2013.09.056,O+E
(Bi2O3)0.35(SrO)0.3(Fe2O3)0.25(Mn2O3)0.25,10.35503366,800,0.01073982,0,,https://doi.org/10.1016/j.ssi.2013.09.056,O+E
(Bi2O3)0.35(SrO)0.3(Fe2O3)0.25(Mn2O3)0.25,10.72267222,800,0.024996077,0,,https://doi.org/10.1016/j.ssi.2013.09.056,O+E
(Bi2O3)0.35(SrO)0.3(Fe2O3)0.25(Mn2O3)0.25,11.10336318,800,0.038154046,0,,https://doi.org/10.1016/j.ssi.2013.09.056,O+E
(Bi2O3)0.35(SrO)0.3(Fe2O3)0.25(Mn2O3)0.25,11.90577239,800,24.63917633,0,,https://doi.org/10.1016/j.ssi.2013.09.056,O+E
(La2O3)0.35(SrO)0.3(Cr2O3)0.25(Mn2O3)0.25,48.60986443,888.6695515,21,0,,https://doi.org/10.1016/j.ssi.2006.02.025,O+E
(La2O3)0.35(SrO)0.3(Cr2O3)0.25(Mn2O3)0.25,45.55953901,847.1971547,21,0,,https://doi.org/10.1016/j.ssi.2006.02.025,O+E
(La2O3)0.35(SrO)0.3(Cr2O3)0.25(Mn2O3)0.25,43.3708782,808.5838714,21,0,,https://doi.org/10.1016/j.ssi.2006.02.025,O+E
(La2O3)0.35(SrO)0.3(Cr2O3)0.25(Mn2O3)0.25,40.54925874,772.5438919,21,0,,https://doi.org/10.1016/j.ssi.2006.02.025,O+E
(La2O3)0.35(SrO)0.3(Cr2O3)0.25(Mn2O3)0.25,37.86911438,738.8282725,21,0,,https://doi.org/10.1016/j.ssi.2006.02.025,O+E
(La2O3)0.35(SrO)0.3(Cr2O3)0.25(Mn2O3)0.25,35.9296839,707.219177,21,0,,https://doi.org/10.1016/j.ssi.2006.02.025,O+E
(La2O3)0.35(SrO)0.3(Cr2O3)0.25(Mn2O3)0.25,34.05665164,677.5251652,21,0,,https://doi.org/10.1016/j.ssi.2006.02.025,O+E
(La2O3)0.35(SrO)0.3(Cr2O3)0.25(Mn2O3)0.25,32.25163761,649.577312,21,0,,https://doi.org/10.1016/j.ssi.2006.02.025,O+E
(La2O3)0.35(SrO)0.3(Cr2O3)0.25(Mn2O3)0.25,30.51561235,623.2340246,21,0,,https://doi.org/10.1016/j.ssi.2006.02.025,O+E
(La2O3)0.35(SrO)0.3(Cr2O3)0.25(Mn2O3)0.25,28.84945478,598.3457936,21,0,,https://doi.org/10.1016/j.ssi.2006.02.025,O+E
(La2O3)0.35(SrO)0.3(Cr2O3)0.25(Mn2O3)0.25,27.71689894,574.8024959,21,0,,https://doi.org/10.1016/j.ssi.2006.02.025,O+E
(La2O3)0.35(SrO)0.3(Cr2O3)0.25(Mn2O3)0.25,26.60936394,552.4979817,21,0,,https://doi.org/10.1016/j.ssi.2006.02.025,O+E
(La2O3)0.35(SrO)0.3(Cr2O3)0.25(Mn2O3)0.25,25.52840319,531.336985,21,0,,https://doi.org/10.1016/j.ssi.2006.02.025,O+E