Composition,Conductivity (S/cm),Temperature (degC),PO2 (%),PH2O (%),Grainsize,Ref,Carrier Type
(BaO)1(CoO2)0.4(Fe2O3)0.2(ZrO2)0.1(Y2O2)0.05,1.154331353,475,2.00E+01,3.00E+00,,https://patents.google.com/patent/US10014529B2/en,O+H
(BaO)1(CoO2)0.4(Fe2O3)0.2(ZrO2)0.1(Y2O2)0.05,1.028392323,450,2.00E+01,3.00E+00,,https://patents.google.com/patent/US10014529B2/en,O+H
(BaO)1(CoO2)0.4(Fe2O3)0.2(ZrO2)0.1(Y2O2)0.05,0.897969639,425,2.00E+01,3.00E+00,,https://patents.google.com/patent/US10014529B2/en,O+H
(BaO)1(CoO2)0.4(Fe2O3)0.2(ZrO2)0.1(Y2O2)0.05,0.764641026,400,2.00E+01,3.00E+00,,https://patents.google.com/patent/US10014529B2/en,O+H
(BaO)1(CeO2)0.7(ZrO2)0.05(Y2O3)0.1(ZnO)0.05,0.037261526,982.6458898,0,1.9,1.729,https://doi.org/10.1016/j.ijhydene.2016.02.073,H
(BaO)1(CeO2)0.7(ZrO2)0.05(Y2O3)0.1(ZnO)0.05,0.031172361,928.3828868,0,1.9,1.729,https://doi.org/10.1016/j.ijhydene.2016.02.073,H
(BaO)1(CeO2)0.7(ZrO2)0.05(Y2O3)0.1(ZnO)0.05,0.023816337,888.2364244,0,1.9,1.729,https://doi.org/10.1016/j.ijhydene.2016.02.073,H
(BaO)1(CeO2)0.7(ZrO2)0.05(Y2O3)0.1(ZnO)0.05,0.018219838,824.0797159,0,1.9,1.729,https://doi.org/10.1016/j.ijhydene.2016.02.073,H
(BaO)1(CeO2)0.7(ZrO2)0.05(Y2O3)0.1(ZnO)0.05,0.014572691,778.4372163,0,1.9,1.729,https://doi.org/10.1016/j.ijhydene.2016.02.073,H
(BaO)1(CeO2)0.7(ZrO2)0.05(Y2O3)0.1(ZnO)0.05,0.01220183,725.5632184,0,1.9,1.729,https://doi.org/10.1016/j.ijhydene.2016.02.073,H
(BaO)1(CeO2)0.7(ZrO2)0.05(Y2O3)0.1(ZnO)0.05,0.009761449,684.3002755,0,1.9,1.729,https://doi.org/10.1016/j.ijhydene.2016.02.073,H
(BaO)1(CeO2)0.7(ZrO2)0.05(Y2O3)0.1(ZnO)0.05,0.007815913,634.310705,0,1.9,1.729,https://doi.org/10.1016/j.ijhydene.2016.02.073,H
(BaO)1(CeO2)0.7(ZrO2)0.05(Y2O3)0.1(ZnO)0.05,0.006548579,586.6165739,0,1.9,1.729,https://doi.org/10.1016/j.ijhydene.2016.02.073,H
(BaO)1(CeO2)0.7(ZrO2)0.05(Y2O3)0.1(ZnO)0.05,0.005015184,538.9158879,0,1.9,1.729,https://doi.org/10.1016/j.ijhydene.2016.02.073,H
(BaO)1(CeO2)0.7(ZrO2)0.05(Y2O3)0.1(ZnO)0.05,0.003674472,487.8100712,0,1.9,1.729,https://doi.org/10.1016/j.ijhydene.2016.02.073,H
(BaO)1(CeO2)0.7(ZrO2)0.05(Y2O3)0.1(ZnO)0.05,0.002460262,440.9188495,0,1.9,1.729,https://doi.org/10.1016/j.ijhydene.2016.02.073,H
(BaO)1(CeO2)0.7(ZrO2)0.05(Y2O3)0.1(ZnO)0.05,0.001050155,389.8516929,0,1.9,1.729,https://doi.org/10.1016/j.ijhydene.2016.02.073,H
(BaO)1(CeO2)0.7(ZrO2)0.05(Y2O3)0.1(ZnO)0.05,0.000469059,344.2291297,0,1.9,1.729,https://doi.org/10.1016/j.ijhydene.2016.02.073,H
(BaO)1(CeO2)0.7(ZrO2)0.05(Y2O3)0.1(ZnO)0.05,0.000175271,292.7305657,0,1.9,1.729,https://doi.org/10.1016/j.ijhydene.2016.02.073,H
(BaO)1(CeO2)0.7(ZrO2)0.05(Y2O3)0.1(ZnO)0.05,6.26424E-05,246.2379529,0,1.9,1.729,https://doi.org/10.1016/j.ijhydene.2016.02.073,H
(BaO)1(CeO2)0.7(ZrO2)0.05(Y2O3)0.1(ZnO)0.05,1.5642E-05,197.0710179,0,1.9,1.729,https://doi.org/10.1016/j.ijhydene.2016.02.073,H
(BaO)1(CeO2)0.7(ZrO2)0.05(Y2O3)0.1(ZnO)0.05,3.42069E-06,147.9569958,0,1.9,1.729,https://doi.org/10.1016/j.ijhydene.2016.02.073,H
(BaO)1(ZrO2)0.3(CeO2)0.5(Y2O3)0.075(YbO)0.05,0.012493746,800,0,2,,https://doi.org/10.1016/j.jpowsour.2013.07.060,H
(BaO)1(ZrO2)0.3(CeO2)0.5(Y2O3)0.075(YbO)0.05,0.010712075,750,0,2,,https://doi.org/10.1016/j.jpowsour.2013.07.060,H
(BaO)1(ZrO2)0.3(CeO2)0.5(Y2O3)0.075(YbO)0.05,0.009445054,700,0,2,,https://doi.org/10.1016/j.jpowsour.2013.07.060,H
(BaO)1(ZrO2)0.3(CeO2)0.5(Y2O3)0.075(YbO)0.05,0.008611654,650,0,2,,https://doi.org/10.1016/j.jpowsour.2013.07.060,H
(BaO)1(ZrO2)0.3(CeO2)0.5(Y2O3)0.075(YbO)0.05,0.007900142,600,0,2,,https://doi.org/10.1016/j.jpowsour.2013.07.060,H
(BaO)1(ZrO2)0.3(CeO2)0.5(Y2O3)0.075(YbO)0.05,0.007197819,550,0,2,,https://doi.org/10.1016/j.jpowsour.2013.07.060,H
(BaO)1(ZrO2)0.3(CeO2)0.5(Y2O3)0.075(YbO)0.05,0.005650313,500,0,2,,https://doi.org/10.1016/j.jpowsour.2013.07.060,H
(BaO)1(ZrO2)0.3(CeO2)0.5(Y2O3)0.075(YbO)0.05,0.003857386,450,0,2,,https://doi.org/10.1016/j.jpowsour.2013.07.060,H
(BaO)1(ZrO2)0.3(CeO2)0.5(Y2O3)0.075(YbO)0.05,0.00226892,400,0,2,,https://doi.org/10.1016/j.jpowsour.2013.07.060,H
(BaO)1(CeO2)0.5(ZrO2)0.3(Y2O3)0.075(YbO)0.05,0.075408336,895.5099143,20,1.9,2.25,https://doi.org/10.1016/j.electacta.2017.08.149,H+E
(BaO)1(CeO2)0.5(ZrO2)0.3(Y2O3)0.075(YbO)0.05,0.063095734,847.9321012,20,1.9,2.25,https://doi.org/10.1016/j.electacta.2017.08.149,H+E
(BaO)1(CeO2)0.5(ZrO2)0.3(Y2O3)0.075(YbO)0.05,0.050492376,798.1072187,20,1.9,2.25,https://doi.org/10.1016/j.electacta.2017.08.149,H+E
(BaO)1(CeO2)0.5(ZrO2)0.3(Y2O3)0.075(YbO)0.05,0.042248029,747.0397596,20,1.9,2.25,https://doi.org/10.1016/j.electacta.2017.08.149,H+E
(BaO)1(CeO2)0.5(ZrO2)0.3(Y2O3)0.075(YbO)0.05,0.034828557,698.9878502,20,1.9,2.25,https://doi.org/10.1016/j.electacta.2017.08.149,H+E
(BaO)1(CeO2)0.5(ZrO2)0.3(Y2O3)0.075(YbO)0.05,0.026656704,647.8870552,20,1.9,2.25,https://doi.org/10.1016/j.electacta.2017.08.149,H+E
(BaO)1(CeO2)0.5(ZrO2)0.3(Y2O3)0.075(YbO)0.05,0.019512934,599.2668386,20,1.9,2.25,https://doi.org/10.1016/j.electacta.2017.08.149,H+E
(BaO)1(CeO2)0.5(ZrO2)0.3(Y2O3)0.075(YbO)0.05,0.013261133,549.6448474,20,1.9,2.25,https://doi.org/10.1016/j.electacta.2017.08.149,H+E
(BaO)1(CeO2)0.5(ZrO2)0.3(Y2O3)0.075(YbO)0.05,0.009852544,500.1008027,20,1.9,2.25,https://doi.org/10.1016/j.electacta.2017.08.149,H+E
(BaO)1(CeO2)0.5(ZrO2)0.3(Y2O3)0.075(YbO)0.05,0.030943258,895.5099143,0,1.9,2.25,https://doi.org/10.1016/j.electacta.2017.08.149,H
(BaO)1(CeO2)0.5(ZrO2)0.3(Y2O3)0.075(YbO)0.05,0.027558246,847.9321012,0,1.9,2.25,https://doi.org/10.1016/j.electacta.2017.08.149,H
(BaO)1(CeO2)0.5(ZrO2)0.3(Y2O3)0.075(YbO)0.05,0.024901552,798.1072187,0,1.9,2.25,https://doi.org/10.1016/j.electacta.2017.08.149,H
(BaO)1(CeO2)0.5(ZrO2)0.3(Y2O3)0.075(YbO)0.05,0.023162204,747.0397596,0,1.9,2.25,https://doi.org/10.1016/j.electacta.2017.08.149,H
(BaO)1(CeO2)0.5(ZrO2)0.3(Y2O3)0.075(YbO)0.05,0.021858615,698.9878502,0,1.9,2.25,https://doi.org/10.1016/j.electacta.2017.08.149,H
(BaO)1(CeO2)0.5(ZrO2)0.3(Y2O3)0.075(YbO)0.05,0.019751382,647.8870552,0,1.9,2.25,https://doi.org/10.1016/j.electacta.2017.08.149,H
(BaO)1(CeO2)0.5(ZrO2)0.3(Y2O3)0.075(YbO)0.05,0.018107631,599.2668386,0,1.9,2.25,https://doi.org/10.1016/j.electacta.2017.08.149,H
(BaO)1(CeO2)0.5(ZrO2)0.3(Y2O3)0.075(YbO)0.05,0.015219134,549.6448474,0,1.9,2.25,https://doi.org/10.1016/j.electacta.2017.08.149,H
(BaO)1(CeO2)0.5(ZrO2)0.3(Y2O3)0.075(YbO)0.05,0.011726878,500.1008027,0,1.9,2.25,https://doi.org/10.1016/j.electacta.2017.08.149,H
(BaO)1(CeO2)0.7(ZrO2)0.1(Y2O3)0.075(ZnO)0.05,0.046698169,982.6458898,0,1.9,1.729,https://doi.org/10.1016/j.ijhydene.2016.02.073,H
(BaO)1(CeO2)0.7(ZrO2)0.1(Y2O3)0.075(ZnO)0.05,0.039066896,928.3828868,0,1.9,1.729,https://doi.org/10.1016/j.ijhydene.2016.02.073,H
(BaO)1(CeO2)0.7(ZrO2)0.1(Y2O3)0.075(ZnO)0.05,0.02854884,873.8646865,0,1.9,1.729,https://doi.org/10.1016/j.ijhydene.2016.02.073,H
(BaO)1(CeO2)0.7(ZrO2)0.1(Y2O3)0.075(ZnO)0.05,0.022839036,819.7672956,0,1.9,1.729,https://doi.org/10.1016/j.ijhydene.2016.02.073,H
(BaO)1(CeO2)0.7(ZrO2)0.1(Y2O3)0.075(ZnO)0.05,0.018267243,774.4755087,0,1.9,1.729,https://doi.org/10.1016/j.ijhydene.2016.02.073,H
(BaO)1(CeO2)0.7(ZrO2)0.1(Y2O3)0.075(ZnO)0.05,0.015288686,729.1629416,0,1.9,1.729,https://doi.org/10.1016/j.ijhydene.2016.02.073,H
(BaO)1(CeO2)0.7(ZrO2)0.1(Y2O3)0.075(ZnO)0.05,0.014008028,684.3002755,0,1.9,1.729,https://doi.org/10.1016/j.ijhydene.2016.02.073,H
(BaO)1(CeO2)0.7(ZrO2)0.1(Y2O3)0.075(ZnO)0.05,0.01024549,637.2815979,0,1.9,1.729,https://doi.org/10.1016/j.ijhydene.2016.02.073,H
(BaO)1(CeO2)0.7(ZrO2)0.1(Y2O3)0.075(ZnO)0.05,0.007498435,586.6165739,0,1.9,1.729,https://doi.org/10.1016/j.ijhydene.2016.02.073,H
(BaO)1(CeO2)0.7(ZrO2)0.1(Y2O3)0.075(ZnO)0.05,0.005743867,536.5515434,0,1.9,1.729,https://doi.org/10.1016/j.ijhydene.2016.02.073,H
(BaO)1(CeO2)0.7(ZrO2)0.1(Y2O3)0.075(ZnO)0.05,0.003357215,487.8100712,0,1.9,1.729,https://doi.org/10.1016/j.ijhydene.2016.02.073,H
(BaO)1(CeO2)0.7(ZrO2)0.1(Y2O3)0.075(ZnO)0.05,0.002054206,439.0901639,0,1.9,1.729,https://doi.org/10.1016/j.ijhydene.2016.02.073,H
(BaO)1(CeO2)0.7(ZrO2)0.1(Y2O3)0.075(ZnO)0.05,0.000917128,389.8516929,0,1.9,1.729,https://doi.org/10.1016/j.ijhydene.2016.02.073,H
(BaO)1(CeO2)0.7(ZrO2)0.1(Y2O3)0.075(ZnO)0.05,0.000490722,344.2291297,0,1.9,1.729,https://doi.org/10.1016/j.ijhydene.2016.02.073,H
(BaO)1(CeO2)0.7(ZrO2)0.1(Y2O3)0.075(ZnO)0.05,0.000191793,293.8841762,0,1.9,1.729,https://doi.org/10.1016/j.ijhydene.2016.02.073,H
(BaO)1(CeO2)0.7(ZrO2)0.1(Y2O3)0.075(ZnO)0.05,4.99838E-05,246.2379529,0,1.9,1.729,https://doi.org/10.1016/j.ijhydene.2016.02.073,H
(BaO)1(CeO2)0.7(ZrO2)0.1(Y2O3)0.075(ZnO)0.05,1.04189E-05,197.0710179,0,1.9,1.729,https://doi.org/10.1016/j.ijhydene.2016.02.073,H
(BaO)1(CeO2)0.7(ZrO2)0.1(Y2O3)0.075(ZnO)0.05,1.58809E-06,147.3205322,0,1.9,1.729,https://doi.org/10.1016/j.ijhydene.2016.02.073,H
(BaO)1(CeO2)0.4(ZrO2)0.4(Gd2O3)0.05(Dy2O3)0.05,1.43E-03,700,0,0,,https://doi.org/10.1016/j.ceramint.2015.05.026,H
(BaO)1(CeO2)0.4(ZrO2)0.4(Gd2O3)0.05(Dy2O3)0.05,1.03E-03,600,0,0,,https://doi.org/10.1016/j.ceramint.2015.05.026,H
(BaO)1(CeO2)0.4(ZrO2)0.4(Gd2O3)0.05(Dy2O3)0.05,4.91E-04,500,0,0,,https://doi.org/10.1016/j.ceramint.2015.05.026,H
(BaO)1(CeO2)0.4(ZrO2)0.4(Gd2O3)0.05(Dy2O3)0.05,1.33E-04,400,0,0,,https://doi.org/10.1016/j.ceramint.2015.05.026,H
(BaO)1(CeO2)0.4(ZrO2)0.4(Gd2O3)0.05(Dy2O3)0.05,2.18E-05,300,0,0,,https://doi.org/10.1016/j.ceramint.2015.05.026,H
(BaO)1(CeO2)0.4(ZrO2)0.4(Gd2O3)0.05(Dy2O3)0.05,1.85E-03,700,100,0,,https://doi.org/10.1016/j.ceramint.2015.05.026,H
(BaO)1(CeO2)0.4(ZrO2)0.4(Gd2O3)0.05(Dy2O3)0.05,1.20E-03,600,100,0,,https://doi.org/10.1016/j.ceramint.2015.05.026,H
(BaO)1(CeO2)0.4(ZrO2)0.4(Gd2O3)0.05(Dy2O3)0.05,3.46E-04,500,100,0,,https://doi.org/10.1016/j.ceramint.2015.05.026,H
(BaO)1(CeO2)0.4(ZrO2)0.4(Gd2O3)0.05(Dy2O3)0.05,9.06E-05,400,100,0,,https://doi.org/10.1016/j.ceramint.2015.05.026,H
(BaO)1(CeO2)0.4(ZrO2)0.4(Gd2O3)0.05(Dy2O3)0.05,5.84E-06,300,100,0,,https://doi.org/10.1016/j.ceramint.2015.05.026,H
(BaO)1(CeO2)0.4(ZrO2)0.4(Gd2O3)0.05(Dy2O3)0.05,1.93E-03,700,0,1.9,,https://doi.org/10.1016/j.ceramint.2015.05.026,H
(BaO)1(CeO2)0.4(ZrO2)0.4(Gd2O3)0.05(Dy2O3)0.05,1.15E-03,600,0,1.9,,https://doi.org/10.1016/j.ceramint.2015.05.026,H
(BaO)1(CeO2)0.4(ZrO2)0.4(Gd2O3)0.05(Dy2O3)0.05,5.95E-04,500,0,1.9,,https://doi.org/10.1016/j.ceramint.2015.05.026,H
(BaO)1(CeO2)0.4(ZrO2)0.4(Gd2O3)0.05(Dy2O3)0.05,2.16E-04,400,0,1.9,,https://doi.org/10.1016/j.ceramint.2015.05.026,H
(BaO)1(CeO2)0.4(ZrO2)0.4(Gd2O3)0.05(Dy2O3)0.05,7.80E-05,300,0,1.9,,https://doi.org/10.1016/j.ceramint.2015.05.026,H
(BaO)1(CeO2)0.4(ZrO2)0.4(Gd2O3)0.05(Dy2O3)0.05,1.85E-03,700,98.1,1.9,,https://doi.org/10.1016/j.ceramint.2015.05.026,H
(BaO)1(CeO2)0.4(ZrO2)0.4(Gd2O3)0.05(Dy2O3)0.05,1.27E-03,600,98.1,1.9,,https://doi.org/10.1016/j.ceramint.2015.05.026,H
(BaO)1(CeO2)0.4(ZrO2)0.4(Gd2O3)0.05(Dy2O3)0.05,6.40E-04,500,98.1,1.9,,https://doi.org/10.1016/j.ceramint.2015.05.026,H
(BaO)1(CeO2)0.4(ZrO2)0.4(Gd2O3)0.05(Dy2O3)0.05,1.97E-04,400,98.1,1.9,,https://doi.org/10.1016/j.ceramint.2015.05.026,H
(BaO)1(CeO2)0.4(ZrO2)0.4(Gd2O3)0.05(Dy2O3)0.05,4.03E-05,300,98.1,1.9,,https://doi.org/10.1016/j.ceramint.2015.05.026,H
(BaO)1(CeO2)0.7(ZrO2)0.15(Y2O3)0.05(ZnO)0.05,0.034051715,977,0,1.9,1.981,https://doi.org/10.1016/j.ijhydene.2016.02.073,H
(BaO)1(CeO2)0.7(ZrO2)0.15(Y2O3)0.05(ZnO)0.05,0.028487087,923.2134251,0,1.9,1.981,https://doi.org/10.1016/j.ijhydene.2016.02.073,H
(BaO)1(CeO2)0.7(ZrO2)0.15(Y2O3)0.05(ZnO)0.05,0.021778876,869.1528348,0,1.9,1.981,https://doi.org/10.1016/j.ijhydene.2016.02.073,H
(BaO)1(CeO2)0.7(ZrO2)0.15(Y2O3)0.05(ZnO)0.05,0.016646726,824.0797159,0,1.9,1.981,https://doi.org/10.1016/j.ijhydene.2016.02.073,H
(BaO)1(CeO2)0.7(ZrO2)0.15(Y2O3)0.05(ZnO)0.05,0.013314476,778.4372163,0,1.9,1.981,https://doi.org/10.1016/j.ijhydene.2016.02.073,H
(BaO)1(CeO2)0.7(ZrO2)0.15(Y2O3)0.05(ZnO)0.05,0.011660659,729.1629416,0,1.9,1.981,https://doi.org/10.1016/j.ijhydene.2016.02.073,H
(BaO)1(CeO2)0.7(ZrO2)0.15(Y2O3)0.05(ZnO)0.05,0.009763563,681.0150995,0,1.9,1.981,https://doi.org/10.1016/j.ijhydene.2016.02.073,H
(BaO)1(CeO2)0.7(ZrO2)0.15(Y2O3)0.05(ZnO)0.05,0.006237845,631.3591412,0,1.9,1.981,https://doi.org/10.1016/j.ijhydene.2016.02.073,H
(BaO)1(CeO2)0.7(ZrO2)0.15(Y2O3)0.05(ZnO)0.05,0.004361908,586.6165739,0,1.9,1.981,https://doi.org/10.1016/j.ijhydene.2016.02.073,H
(BaO)1(CeO2)0.7(ZrO2)0.15(Y2O3)0.05(ZnO)0.05,0.002548926,534.2009292,0,1.9,1.981,https://doi.org/10.1016/j.ijhydene.2016.02.073,H
(BaO)1(CeO2)0.7(ZrO2)0.15(Y2O3)0.05(ZnO)0.05,0.001557944,489.8979144,0,1.9,1.981,https://doi.org/10.1016/j.ijhydene.2016.02.073,H
(BaO)1(CeO2)0.7(ZrO2)0.15(Y2O3)0.05(ZnO)0.05,0.000727059,440.9188495,0,1.9,1.981,https://doi.org/10.1016/j.ijhydene.2016.02.073,H
(BaO)1(CeO2)0.7(ZrO2)0.15(Y2O3)0.05(ZnO)0.05,0.000310209,393.0277911,0,1.9,1.981,https://doi.org/10.1016/j.ijhydene.2016.02.073,H
(BaO)1(CeO2)0.7(ZrO2)0.15(Y2O3)0.05(ZnO)0.05,0.000151716,344.2291297,0,1.9,1.981,https://doi.org/10.1016/j.ijhydene.2016.02.073,H
(BaO)1(CeO2)0.7(ZrO2)0.15(Y2O3)0.05(ZnO)0.05,3.77529E-05,293.8841762,0,1.9,1.981,https://doi.org/10.1016/j.ijhydene.2016.02.073,H
(BaO)1(CeO2)0.7(ZrO2)0.15(Y2O3)0.05(ZnO)0.05,1.17863E-05,246.2379529,0,1.9,1.981,https://doi.org/10.1016/j.ijhydene.2016.02.073,H
(BaO)1(CeO2)0.7(ZrO2)0.15(Y2O3)0.05(ZnO)0.05,1.5642E-06,197.0710179,0,1.9,1.981,https://doi.org/10.1016/j.ijhydene.2016.02.073,H
(BaO)1(CeO2)0.7(ZrO2)0.15(Y2O3)0.05(ZnO)0.05,1.51831E-07,146.6859903,0,1.9,1.981,https://doi.org/10.1016/j.ijhydene.2016.02.073,H
(BaO)1(CeO2)0.7(ZrO2)0.2(Y2O3)0.025(ZnO)0.05,0.005594113,982.6458898,0,1.9,1.981,https://doi.org/10.1016/j.ijhydene.2016.02.073,H
(BaO)1(CeO2)0.7(ZrO2)0.2(Y2O3)0.025(ZnO)0.05,0.00390669,928.3828868,0,1.9,1.981,https://doi.org/10.1016/j.ijhydene.2016.02.073,H
(BaO)1(CeO2)0.7(ZrO2)0.2(Y2O3)0.025(ZnO)0.05,0.003123317,883.40599,0,1.9,1.981,https://doi.org/10.1016/j.ijhydene.2016.02.073,H
(BaO)1(CeO2)0.7(ZrO2)0.2(Y2O3)0.025(ZnO)0.05,0.002389382,819.7672956,0,1.9,1.981,https://doi.org/10.1016/j.ijhydene.2016.02.073,H
(BaO)1(CeO2)0.7(ZrO2)0.2(Y2O3)0.025(ZnO)0.05,0.001745706,778.4372163,0,1.9,1.981,https://doi.org/10.1016/j.ijhydene.2016.02.073,H
(BaO)1(CeO2)0.7(ZrO2)0.2(Y2O3)0.025(ZnO)0.05,0.001219919,729.1629416,0,1.9,1.981,https://doi.org/10.1016/j.ijhydene.2016.02.073,H
(BaO)1(CeO2)0.7(ZrO2)0.2(Y2O3)0.025(ZnO)0.05,0.00081486,684.3002755,0,1.9,1.981,https://doi.org/10.1016/j.ijhydene.2016.02.073,H
(BaO)1(CeO2)0.7(ZrO2)0.2(Y2O3)0.025(ZnO)0.05,0.000544649,634.310705,0,1.9,1.981,https://doi.org/10.1016/j.ijhydene.2016.02.073,H
(BaO)1(CeO2)0.7(ZrO2)0.2(Y2O3)0.025(ZnO)0.05,0.000277834,581.3331285,0,1.9,1.981,https://doi.org/10.1016/j.ijhydene.2016.02.073,H
(BaO)1(CeO2)0.7(ZrO2)0.2(Y2O3)0.025(ZnO)0.05,0.000135442,536.5515434,0,1.9,1.981,https://doi.org/10.1016/j.ijhydene.2016.02.073,H
(BaO)1(CeO2)0.7(ZrO2)0.2(Y2O3)0.025(ZnO)0.05,5.7713E-05,487.8100712,0,1.9,1.981,https://doi.org/10.1016/j.ijhydene.2016.02.073,H
(BaO)1(CeO2)0.7(ZrO2)0.2(Y2O3)0.025(ZnO)0.05,2.57389E-05,440.9188495,0,1.9,1.981,https://doi.org/10.1016/j.ijhydene.2016.02.073,H
(BaO)1(CeO2)0.7(ZrO2)0.2(Y2O3)0.025(ZnO)0.05,1.25774E-05,391.4359465,0,1.9,1.981,https://doi.org/10.1016/j.ijhydene.2016.02.073,H
(BaO)1(CeO2)0.7(ZrO2)0.2(Y2O3)0.025(ZnO)0.05,3.26933E-06,342.8617634,0,1.9,1.981,https://doi.org/10.1016/j.ijhydene.2016.02.073,H
(BaO)1(CeO2)0.7(ZrO2)0.2(Y2O3)0.025(ZnO)0.05,7.43135E-07,293.8841762,0,1.9,1.981,https://doi.org/10.1016/j.ijhydene.2016.02.073,H
(BaO)1(CeO2)0.7(ZrO2)0.2(Y2O3)0.025(ZnO)0.05,1.54568E-07,245.2699478,0,1.9,1.981,https://doi.org/10.1016/j.ijhydene.2016.02.073,H
(BaO)1(CeO2)0.7(ZrO2)0.2(Y2O3)0.025(ZnO)0.05,2.57026E-08,197.0710179,0,1.9,1.981,https://doi.org/10.1016/j.ijhydene.2016.02.073,H
(SrO)1(CeO2)0.5(ZrO2)0.35(Y2O3)0.05(Sm2O3)0.025,0.002066354,699.0795439,0,1.9,5.8,https://doi.org/10.1016/j.ijhydene.2016.02.073,H
(SrO)1(CeO2)0.5(ZrO2)0.35(Y2O3)0.05(Sm2O3)0.025,0.001438161,649.1768215,0,1.9,5.8,https://doi.org/10.1016/j.ijhydene.2016.02.073,H
(SrO)1(CeO2)0.5(ZrO2)0.35(Y2O3)0.05(Sm2O3)0.025,0.000845363,599.7669291,0,1.9,5.8,https://doi.org/10.1016/j.ijhydene.2016.02.073,H
(SrO)1(CeO2)0.5(ZrO2)0.35(Y2O3)0.05(Sm2O3)0.025,0.000507179,550.1334703,0,1.9,5.8,https://doi.org/10.1016/j.ijhydene.2016.02.073,H
(SrO)1(CeO2)0.5(ZrO2)0.35(Y2O3)0.05(Sm2O3)0.025,0.000279489,500.0663285,0,1.9,5.8,https://doi.org/10.1016/j.ijhydene.2016.02.073,H
(SrO)1(CeO2)0.5(ZrO2)0.35(Y2O3)0.05(Sm2O3)0.025,0.000135632,450.6883278,0,1.9,5.8,https://doi.org/10.1016/j.ijhydene.2016.02.073,H
(SrO)1(CeO2)0.5(ZrO2)0.35(Y2O3)0.05(Sm2O3)0.025,6.43704E-05,400.1971326,0,1.9,5.8,https://doi.org/10.1016/j.ijhydene.2016.02.073,H
(SrO)1(CeO2)0.5(ZrO2)0.35(Y2O3)0.05(Sm2O3)0.025,2.57778E-05,349.5300861,0,1.9,5.8,https://doi.org/10.1016/j.ijhydene.2016.02.073,H
(SrO)1(CeO2)0.5(ZrO2)0.35(Y2O3)0.05(Sm2O3)0.025,1.07557E-05,301.474893,0,1.9,5.8,https://doi.org/10.1016/j.ijhydene.2016.02.073,H
(SrO)1(CoO2)0.8(Sc2O3)0.0875(NbO)0.0125(NbO2)0.0125,17.7486911,349.559225,2.00E+01,0.00E+00,,https://doi.org/10.1016/j.electacta.2017.11.037,O+H
(SrO)1(CoO2)0.8(Sc2O3)0.0875(NbO)0.0125(NbO2)0.0125,21.51832461,373.2648678,2.00E+01,0.00E+00,,https://doi.org/10.1016/j.electacta.2017.11.037,O+H
(SrO)1(CoO2)0.8(Sc2O3)0.0875(NbO)0.0125(NbO2)0.0125,25.28795812,399.1072627,2.00E+01,0.00E+00,,https://doi.org/10.1016/j.electacta.2017.11.037,O+H
(SrO)1(CoO2)0.8(Sc2O3)0.0875(NbO)0.0125(NbO2)0.0125,28.63874346,427.0640354,2.00E+01,0.00E+00,,https://doi.org/10.1016/j.electacta.2017.11.037,O+H
(SrO)1(CoO2)0.8(Sc2O3)0.0875(NbO)0.0125(NbO2)0.0125,31.78010471,450.7361167,2.00E+01,0.00E+00,,https://doi.org/10.1016/j.electacta.2017.11.037,O+H
(SrO)1(CoO2)0.8(Sc2O3)0.0875(NbO)0.0125(NbO2)0.0125,34.08376963,474.3634492,2.00E+01,0.00E+00,,https://doi.org/10.1016/j.electacta.2017.11.037,E
(SrO)1(CoO2)0.8(Sc2O3)0.0875(NbO)0.0125(NbO2)0.0125,33.87434555,502.1300398,2.00E+01,0.00E+00,,https://doi.org/10.1016/j.electacta.2017.11.037,E
(SrO)1(CoO2)0.8(Sc2O3)0.0875(NbO)0.0125(NbO2)0.0125,33.45549738,525.611939,2.00E+01,0.00E+00,,https://doi.org/10.1016/j.electacta.2017.11.037,E
(SrO)1(CoO2)0.8(Sc2O3)0.0875(NbO)0.0125(NbO2)0.0125,32.61780105,551.2082159,2.00E+01,0.00E+00,,https://doi.org/10.1016/j.electacta.2017.11.037,E
(SrO)1(CoO2)0.8(Sc2O3)0.0875(NbO)0.0125(NbO2)0.0125,32.40837696,576.8380543,2.00E+01,0.00E+00,,https://doi.org/10.1016/j.electacta.2017.11.037,E
(SrO)1(CoO2)0.8(Sc2O3)0.0875(NbO)0.0125(NbO2)0.0125,31.57068063,602.4343312,2.00E+01,0.00E+00,,https://doi.org/10.1016/j.electacta.2017.11.037,E
(SrO)1(CoO2)0.8(Sc2O3)0.0875(NbO)0.0125(NbO2)0.0125,31.36125654,623.7906654,2.00E+01,0.00E+00,,https://doi.org/10.1016/j.electacta.2017.11.037,E
(SrO)1(CoO2)0.8(Sc2O3)0.0875(NbO)0.0125(NbO2)0.0125,30.94240838,649.4093167,2.00E+01,0.00E+00,,https://doi.org/10.1016/j.electacta.2017.11.037,E
(SrO)1(CoO2)0.8(Sc2O3)0.0875(NbO)0.0125(NbO2)0.0125,30.73298429,675.0391551,2.00E+01,0.00E+00,,https://doi.org/10.1016/j.electacta.2017.11.037,E
(SrO)1(CoO2)0.8(Sc2O3)0.0875(NbO)0.0125(NbO2)0.0125,30.73298429,700.6801808,2.00E+01,0.00E+00,,https://doi.org/10.1016/j.electacta.2017.11.037,E
(SrO)1(CoO2)0.8(Sc2O3)0.0875(NbO)0.0125(NbO2)0.0125,30.52356021,726.3100192,2.00E+01,0.00E+00,,https://doi.org/10.1016/j.electacta.2017.11.037,E
(SrO)1(CoO2)0.8(Sc2O3)0.0875(NbO)0.0125(NbO2)0.0125,30.52356021,751.9510449,2.00E+01,0.00E+00,,https://doi.org/10.1016/j.electacta.2017.11.037,E
(SrO)1(CoO2)0.8(Sc2O3)0.0875(NbO)0.0125(NbO2)0.0125,30.52356021,775.4553184,2.00E+01,0.00E+00,,https://doi.org/10.1016/j.electacta.2017.11.037,E
(SrO)1(CoO2)0.8(Sc2O3)0.0875(NbO)0.0125(NbO2)0.0125,30.52356021,801.096344,2.00E+01,0.00E+00,,https://doi.org/10.1016/j.electacta.2017.11.037,E
(SrO)1(CoO2)0.8(Sc2O3)0.0875(NbO)0.0125(NbO2)0.0125,15.02617801,349.4137916,2.00E+01,3.00E+00,,https://doi.org/10.1016/j.electacta.2017.11.037,O+H
(SrO)1(CoO2)0.8(Sc2O3)0.0875(NbO)0.0125(NbO2)0.0125,17.53926702,375.1890634,2.00E+01,3.00E+00,,https://doi.org/10.1016/j.electacta.2017.11.037,O+H
(SrO)1(CoO2)0.8(Sc2O3)0.0875(NbO)0.0125(NbO2)0.0125,20.68062827,400.9978968,2.00E+01,3.00E+00,,https://doi.org/10.1016/j.electacta.2017.11.037,O+H