Composition,Conductivity (S/cm),Temperature (degC),PO2 (%),PH2O (%),Grainsize,Ref,Carrier Type
(CaO)1(ZrO2)0.95(In2O3)0.025,0.000288127,744.3817917,0,0,,https://doi.org/10.1016/0167-2738(93)90335-Z,H
(CaO)1(ZrO2)0.95(In2O3)0.025,0.00022685,698.627791,0,0,,https://doi.org/10.1016/0167-2738(93)90335-Z,H
(CaO)1(ZrO2)0.95(In2O3)0.025,0.000158436,646.2718133,0,0,,https://doi.org/10.1016/0167-2738(93)90335-Z,H
(CaO)1(ZrO2)0.95(In2O3)0.025,0.000112898,597.8652365,0,0,,https://doi.org/10.1016/0167-2738(93)90335-Z,H
(BaO)1(CeO2)0.95(Nd2O3)0.025,0.031524796,989.8143521,20,1.9,,https://doi.org/10.1149/1.2095649,H+E
(BaO)1(CeO2)0.95(Nd2O3)0.025,0.026169158,953.6927725,20,1.9,,https://doi.org/10.1149/1.2095649,H+E
(BaO)1(CeO2)0.95(Nd2O3)0.025,0.020929301,919.6403106,20,1.9,,https://doi.org/10.1149/1.2095649,H+E
(BaO)1(CeO2)0.95(Nd2O3)0.025,0.015829271,870.1707415,20,1.9,,https://doi.org/10.1149/1.2095649,H+E
(BaO)1(CeO2)0.95(Nd2O3)0.025,0.012659772,834.0954907,20,1.9,,https://doi.org/10.1149/1.2095649,H+E
(BaO)1(CeO2)0.95(Nd2O3)0.025,0.009574852,797.2972388,20,1.9,,https://doi.org/10.1149/1.2095649,H+E
(BaO)1(CeO2)0.95(Nd2O3)0.025,0.006356741,760.2267882,20,1.9,,https://doi.org/10.1149/1.2095649,H+E
(BaO)1(CeO2)0.95(Nd2O3)0.025,0.004065972,715.3583254,20,1.9,,https://doi.org/10.1149/1.2095649,H+E
(BaO)1(CeO2)0.95(Nd2O3)0.025,0.002552749,676.5951552,20,1.9,,https://doi.org/10.1149/1.2095649,H+E
(BaO)1(CeO2)0.95(Nd2O3)0.025,0.001602698,636.4127901,20,1.9,,https://doi.org/10.1149/1.2095649,H+E
(BaO)1(CeO2)0.95(Nd2O3)0.025,0.001044403,599.4608366,20,1.9,,https://doi.org/10.1149/1.2095649,H+E
(BaO)1(CeO2)0.95(Nd2O3)0.025,0.014632268,996.2466447,0,0,,https://doi.org/10.1149/1.2095649,H
(BaO)1(CeO2)0.95(Nd2O3)0.025,0.010981215,956.8658328,0,0,,https://doi.org/10.1149/1.2095649,H
(BaO)1(CeO2)0.95(Nd2O3)0.025,0.008771814,917.2039093,0,0,,https://doi.org/10.1149/1.2095649,H
(BaO)1(CeO2)0.95(Nd2O3)0.025,0.006749449,880.0594853,0,0,,https://doi.org/10.1149/1.2095649,H
(BaO)1(CeO2)0.95(Nd2O3)0.025,0.005391472,838.3484032,0,0,,https://doi.org/10.1149/1.2095649,H
(BaO)1(CeO2)0.95(Nd2O3)0.025,0.004527167,799.5043598,0,0,,https://doi.org/10.1149/1.2095649,H
(BaO)1(CeO2)0.95(Nd2O3)0.025,0.004253303,759.2990844,0,0,,https://doi.org/10.1149/1.2095649,H
(BaO)1(CeO2)0.95(Nd2O3)0.025,0.004097002,723.7829867,0,0,,https://doi.org/10.1149/1.2095649,H
(BaO)1(CeO2)0.95(Nd2O3)0.025,0.003355407,679.0704424,0,0,,https://doi.org/10.1149/1.2095649,H
(BaO)1(CeO2)0.95(Nd2O3)0.025,0.002680305,639.7255392,0,0,,https://doi.org/10.1149/1.2095649,H
(BaO)1(CeO2)0.95(Nd2O3)0.025,0.001937594,599.3929228,0,0,,https://doi.org/10.1149/1.2095649,H
(BaO)1(SnO2)0.95(Y2O3)0.025,0.079354415,822.4441002,0,2.40E+00,0.5,https://doi.org/10.1016/j.ssi.2012.02.045,H
(BaO)1(SnO2)0.95(Y2O3)0.025,0.056330993,772.4945385,0,2.40E+00,0.5,https://doi.org/10.1016/j.ssi.2012.02.045,H
(BaO)1(SnO2)0.95(Y2O3)0.025,0.041814778,729.1969794,0,2.40E+00,0.5,https://doi.org/10.1016/j.ssi.2012.02.045,H
(BaO)1(SnO2)0.95(Y2O3)0.025,0.031063444,687.2186947,0,2.40E+00,0.5,https://doi.org/10.1016/j.ssi.2012.02.045,H
(BaO)1(SnO2)0.95(Y2O3)0.025,0.016268083,650.6214591,0,2.40E+00,0.5,https://doi.org/10.1016/j.ssi.2012.02.045,H
(BaO)1(SnO2)0.95(Y2O3)0.025,0.007130067,600.6546124,0,2.40E+00,0.5,https://doi.org/10.1016/j.ssi.2012.02.045,H
(BaO)1(SnO2)0.95(Y2O3)0.025,0.003416511,560.5700182,0,2.40E+00,0.5,https://doi.org/10.1016/j.ssi.2012.02.045,H
(BaO)1(SnO2)0.95(Y2O3)0.025,0.001112445,516.8081531,0,2.40E+00,0.5,https://doi.org/10.1016/j.ssi.2012.02.045,H
(BaO)1(SnO2)0.95(Y2O3)0.025,0.000364129,472.269309,0,2.40E+00,0.5,https://doi.org/10.1016/j.ssi.2012.02.045,H
(BaO)1(SnO2)0.95(Y2O3)0.025,0.000109287,423.4573154,0,2.40E+00,0.5,https://doi.org/10.1016/j.ssi.2012.02.045,H
(BaO)1(SnO2)0.95(Y2O3)0.025,2.83672E-05,376.7512703,0,2.40E+00,0.5,https://doi.org/10.1016/j.ssi.2012.02.045,H
(BaO)1(SnO2)0.95(Y2O3)0.025,6.7308E-06,329.1783681,0,2.40E+00,0.5,https://doi.org/10.1016/j.ssi.2012.02.045,H
(BaO)1(SnO2)0.95(Y2O3)0.025,1.14759E-06,278.8603013,0,2.40E+00,0.5,https://doi.org/10.1016/j.ssi.2012.02.045,H
(CaO)1(ZrO2)0.95(Al2O3)0.025,0.000294252,1327.877193,1,1,,https://doi.org/10.1016/j.electacta.2010.10.098,H+E
(CaO)1(ZrO2)0.95(Al2O3)0.025,0.000186616,1210.739837,1,1,,https://doi.org/10.1016/j.electacta.2010.10.098,H+E
(CaO)1(ZrO2)0.95(Al2O3)0.025,0.000134444,1109.575758,1,1,,https://doi.org/10.1016/j.electacta.2010.10.098,H
(CaO)1(ZrO2)0.95(Al2O3)0.025,0.000107016,1000.99651,1,1,,https://doi.org/10.1016/j.electacta.2010.10.098,H
(CaO)1(ZrO2)0.95(Al2O3)0.025,7.43424E-05,904.7992901,1,1,,https://doi.org/10.1016/j.electacta.2010.10.098,H
(CaO)1(ZrO2)0.95(Al2O3)0.025,4.76327E-05,807.5210184,1,1,,https://doi.org/10.1016/j.electacta.2010.10.098,H
(CaO)1(ZrO2)0.95(Al2O3)0.025,1.98021E-05,708.1827957,1,1,,https://doi.org/10.1016/j.electacta.2010.10.098,H
(CaO)1(ZrO2)0.95(Al2O3)0.025,6.13302E-06,604.1929825,1,1,,https://doi.org/10.1016/j.electacta.2010.10.098,H
(CaO)1(ZrO2)0.95(Al2O3)0.025,0.00091111,1204.51606,0,1,,https://doi.org/10.1016/j.electacta.2010.10.098,O+E
(CaO)1(ZrO2)0.95(Al2O3)0.025,0.00046636,1100.9546,0,1,,https://doi.org/10.1016/j.electacta.2010.10.098,H
(CaO)1(ZrO2)0.95(Al2O3)0.025,0.000207843,1003.3596,0,1,,https://doi.org/10.1016/j.electacta.2010.10.098,H
(CaO)1(ZrO2)0.95(Al2O3)0.025,7.42829E-05,899.2731906,0,1,,https://doi.org/10.1016/j.electacta.2010.10.098,H
(CaO)1(ZrO2)0.95(Al2O3)0.025,2.79226E-05,800.0948678,0,1,,https://doi.org/10.1016/j.electacta.2010.10.098,H
(CaO)1(ZrO2)0.95(Al2O3)0.025,1.05728E-05,702.9547383,0,1,,https://doi.org/10.1016/j.electacta.2010.10.098,H
(CaO)1(ZrO2)0.95(Al2O3)0.025,4.26121E-06,601.9682983,0,1,,https://doi.org/10.1016/j.electacta.2010.10.098,H
(CaO)1(ZrO2)0.95(Al2O3)0.025,8.69814E-07,498.6394543,0,1,,https://doi.org/10.1016/j.electacta.2010.10.098,H
(SrO)1(CeO2)0.95(Tb2O3)0.025,5.79762E-05,897.9977543,20,0,,https://doi.org/10.1016/S0167-2738(99)00013-2,O
(SrO)1(CeO2)0.95(Tb2O3)0.025,9.48306E-06,798.9530103,20,0,,https://doi.org/10.1016/S0167-2738(99)00013-2,H+E
(SrO)1(CeO2)0.95(Tb2O3)0.025,2.60737E-06,699.5552891,20,0,,https://doi.org/10.1016/S0167-2738(99)00013-2,H+E
(SrO)1(CeO2)0.95(Tb2O3)0.025,1.414E-06,599.9968907,20,0,,https://doi.org/10.1016/S0167-2738(99)00013-2,H+E
(SrO)1(CeO2)0.95(Tb2O3)0.025,1.06015E-06,499.4867725,20,0,,https://doi.org/10.1016/S0167-2738(99)00013-2,H+E
(SrO)1(CeO2)0.95(Tb2O3)0.025,0.007963178,899.5024093,0,0,,https://doi.org/10.1016/S0167-2738(99)00013-2,O
(SrO)1(CeO2)0.95(Tb2O3)0.025,0.004828865,798.9530103,0,0,,https://doi.org/10.1016/S0167-2738(99)00013-2,H+E
(SrO)1(CeO2)0.95(Tb2O3)0.025,0.002314108,700.5929581,0,0,,https://doi.org/10.1016/S0167-2738(99)00013-2,H+E
(SrO)1(CeO2)0.95(Tb2O3)0.025,0.001159423,599.9968907,0,0,,https://doi.org/10.1016/S0167-2738(99)00013-2,H+E
(SrO)1(CeO2)0.95(Tb2O3)0.025,0.000442645,499.4867725,0,0,,https://doi.org/10.1016/S0167-2738(99)00013-2,H+E
(SrO)1(CeO2)0.95(Tb2O3)0.025,5.6267E-05,900,0.006441029,0,,https://doi.org/10.1016/S0167-2738(99)00013-2,O
(SrO)1(CeO2)0.95(Tb2O3)0.025,5.41938E-05,900,19.21242077,0,,https://doi.org/10.1016/S0167-2738(99)00013-2,O
(SrO)1(CeO2)0.95(Tb2O3)0.025,5.48061E-05,900,94.64973514,0,,https://doi.org/10.1016/S0167-2738(99)00013-2,O
(SrO)1(CeO2)0.95(Tb2O3)0.025,9.08226E-06,800,0.006805121,0,,https://doi.org/10.1016/S0167-2738(99)00013-2,H
(SrO)1(CeO2)0.95(Tb2O3)0.025,8.5455E-06,800,20.29844114,0,,https://doi.org/10.1016/S0167-2738(99)00013-2,H
(SrO)1(CeO2)0.95(Tb2O3)0.025,9.05757E-06,800,97.28809544,0,,https://doi.org/10.1016/S0167-2738(99)00013-2,H
(SrO)1(CeO2)0.95(Tb2O3)0.025,2.34127E-06,700,0.006620572,0,,https://doi.org/10.1016/S0167-2738(99)00013-2,H
(SrO)1(CeO2)0.95(Tb2O3)0.025,2.20198E-06,700,20.86425995,0,,https://doi.org/10.1016/S0167-2738(99)00013-2,H
(SrO)1(CeO2)0.95(Tb2O3)0.025,2.38964E-06,700,97.28809544,0,,https://doi.org/10.1016/S0167-2738(99)00013-2,H
(SrO)1(CeO2)0.95(Tb2O3)0.025,1.21671E-06,600,0.006620572,0,,https://doi.org/10.1016/S0167-2738(99)00013-2,H
(SrO)1(CeO2)0.95(Tb2O3)0.025,1.14433E-06,600,20.86425995,0,,https://doi.org/10.1016/S0167-2738(99)00013-2,H
(SrO)1(CeO2)0.95(Tb2O3)0.025,1.18512E-06,600,97.28809544,0,,https://doi.org/10.1016/S0167-2738(99)00013-2,H
(SrO)1(CeO2)0.95(Tb2O3)0.025,1.00918E-06,500,0.006620572,0,,https://doi.org/10.1016/S0167-2738(99)00013-2,H
(SrO)1(CeO2)0.95(Tb2O3)0.025,9.27213E-07,500,20.86425995,0,,https://doi.org/10.1016/S0167-2738(99)00013-2,H
(SrO)1(CeO2)0.95(Tb2O3)0.025,9.16406E-07,500,97.28809544,0,,https://doi.org/10.1016/S0167-2738(99)00013-2,H
(SrO)1(CeO2)0.95(Tb2O3)0.025,0.000140151,900,0.006089405,1.9,,https://doi.org/10.1016/S0167-2738(99)00013-2,O
(SrO)1(CeO2)0.95(Tb2O3)0.025,6.63727E-05,900,19.21096528,1.9,,https://doi.org/10.1016/S0167-2738(99)00013-2,O
(SrO)1(CeO2)0.95(Tb2O3)0.025,6.02705E-05,900,91.65511373,1.9,,https://doi.org/10.1016/S0167-2738(99)00013-2,O
(SrO)1(CeO2)0.95(Tb2O3)0.025,4.30039E-05,800,0.006298996,1.9,,https://doi.org/10.1016/S0167-2738(99)00013-2,H
(SrO)1(CeO2)0.95(Tb2O3)0.025,1.25741E-05,800,19.92830293,1.9,,https://doi.org/10.1016/S0167-2738(99)00013-2,H
(SrO)1(CeO2)0.95(Tb2O3)0.025,1.25741E-05,800,92.49898835,1.9,,https://doi.org/10.1016/S0167-2738(99)00013-2,H
(SrO)1(CeO2)0.95(Tb2O3)0.025,2.59187E-05,700,0.006317674,1.9,,https://doi.org/10.1016/S0167-2738(99)00013-2,H
(SrO)1(CeO2)0.95(Tb2O3)0.025,3.1814E-06,700,20.63747804,1.9,,https://doi.org/10.1016/S0167-2738(99)00013-2,H
(SrO)1(CeO2)0.95(Tb2O3)0.025,3.1814E-06,700,93.24539314,1.9,,https://doi.org/10.1016/S0167-2738(99)00013-2,H
(SrO)1(CeO2)0.95(Tb2O3)0.025,1.35173E-05,600,0.006514881,1.9,,https://doi.org/10.1016/S0167-2738(99)00013-2,H
(SrO)1(CeO2)0.95(Tb2O3)0.025,1.40151E-06,600,20.18564873,1.9,,https://doi.org/10.1016/S0167-2738(99)00013-2,H
(SrO)1(CeO2)0.95(Tb2O3)0.025,1.47075E-06,600,93.6670641,1.9,,https://doi.org/10.1016/S0167-2738(99)00013-2,H
(SrO)1(CeO2)0.95(Tb2O3)0.025,5.95483E-06,500,0.006202927,1.9,,https://doi.org/10.1016/S0167-2738(99)00013-2,H
(SrO)1(CeO2)0.95(Tb2O3)0.025,1.10125E-06,500,20.76591008,1.9,,https://doi.org/10.1016/S0167-2738(99)00013-2,H
(SrO)1(CeO2)0.95(Tb2O3)0.025,1.0494E-06,500,96.41400107,1.9,,https://doi.org/10.1016/S0167-2738(99)00013-2,H
(SrO)1(CeO2)0.95(Tb2O3)0.025,6.52115E-05,896.5609425,20,1.9,,https://doi.org/10.1016/S0167-2738(99)00013-2,O
(SrO)1(CeO2)0.95(Tb2O3)0.025,1.2947E-05,797.192767,20,1.9,,https://doi.org/10.1016/S0167-2738(99)00013-2,H+E
(SrO)1(CeO2)0.95(Tb2O3)0.025,3.26689E-06,698.4673833,20,1.9,,https://doi.org/10.1016/S0167-2738(99)00013-2,H+E
(SrO)1(CeO2)0.95(Tb2O3)0.025,1.38756E-06,599.9750592,20,1.9,,https://doi.org/10.1016/S0167-2738(99)00013-2,H+E
(SrO)1(CeO2)0.95(Tb2O3)0.025,1.07379E-06,499.1823438,20,1.9,,https://doi.org/10.1016/S0167-2738(99)00013-2,H+E
(SrO)1(CeO2)0.95(Tb2O3)0.025,0.006652874,895.0406909,0,1.9,,https://doi.org/10.1016/S0167-2738(99)00013-2,O
(SrO)1(CeO2)0.95(Tb2O3)0.025,0.003912522,795.6212794,0,1.9,,https://doi.org/10.1016/S0167-2738(99)00013-2,H
(SrO)1(CeO2)0.95(Tb2O3)0.025,0.002297349,696.9810512,0,1.9,,https://doi.org/10.1016/S0167-2738(99)00013-2,H
(SrO)1(CeO2)0.95(Tb2O3)0.025,0.001101135,600.4399085,0,1.9,,https://doi.org/10.1016/S0167-2738(99)00013-2,H
(SrO)1(CeO2)0.95(Tb2O3)0.025,0.000396816,498.994864,0,1.9,,https://doi.org/10.1016/S0167-2738(99)00013-2,H
(BaO)1(ZrO2)0.95(Gd2O3)0.025,0.00122739,819.1693518,20,3,0.2,https://doi.org/10.2478/s11532-012-0144-9,H
(BaO)1(ZrO2)0.95(Gd2O3)0.025,0.000421942,710.8493944,20,3,0.2,https://doi.org/10.2478/s11532-012-0144-9,H
(BaO)1(ZrO2)0.95(Gd2O3)0.025,0.000113403,608.8092186,20,3,0.2,https://doi.org/10.2478/s11532-012-0144-9,H
(BaO)1(ZrO2)0.95(Gd2O3)0.025,2.31709E-05,502.537151,20,3,0.2,https://doi.org/10.2478/s11532-012-0144-9,H
(BaO)1(ZrO2)0.95(Gd2O3)0.025,3.88882E-06,400.5414304,20,3,0.2,https://doi.org/10.2478/s11532-012-0144-9,H
(BaO)1(ZrO2)0.95(Gd2O3)0.025,3.00728E-07,300.0459791,20,3,0.2,https://doi.org/10.2478/s11532-012-0144-9,H
(SrO)1(ZrO2)0.95(Gd2O3)0.025,0.000588364,799.3920863,20,3,0.1,https://doi.org/10.2478/s11532-012-0144-9,H
(SrO)1(ZrO2)0.95(Gd2O3)0.025,0.000210104,696.7451346,20,3,0.1,https://doi.org/10.2478/s11532-012-0144-9,H
(SrO)1(ZrO2)0.95(Gd2O3)0.025,9.73383E-05,595.9387917,20,3,0.1,https://doi.org/10.2478/s11532-012-0144-9,H
(SrO)1(ZrO2)0.95(Gd2O3)0.025,1.75105E-05,492.5532643,20,3,0.1,https://doi.org/10.2478/s11532-012-0144-9,H
(SrO)1(ZrO2)0.95(Gd2O3)0.025,1.45412E-06,386.5050256,20,3,0.1,https://doi.org/10.2478/s11532-012-0144-9,H
(SrO)1(ZrO2)0.95(Gd2O3)0.025,7.41048E-08,287.1898973,20,3,0.1,https://doi.org/10.2478/s11532-012-0144-9,H
(BaO)1(CeO2)0.95(Gd2O3)0.025,0.005433425,709.198012,20,3,0.8,https://doi.org/10.2478/s11532-012-0144-9,H
(BaO)1(CeO2)0.95(Gd2O3)0.025,0.002985523,604.3269424,20,3,0.8,https://doi.org/10.2478/s11532-012-0144-9,H
(BaO)1(CeO2)0.95(Gd2O3)0.025,0.001594046,500.4070988,20,3,0.8,https://doi.org/10.2478/s11532-012-0144-9,H
(BaO)1(CeO2)0.95(Gd2O3)0.025,0.000702392,397.1120898,20,3,0.8,https://doi.org/10.2478/s11532-012-0144-9,H
(BaO)1(CeO2)0.95(Gd2O3)0.025,0.000370915,349.8188875,20,3,0.8,https://doi.org/10.2478/s11532-012-0144-9,H
(BaO)1(CeO2)0.95(Gd2O3)0.025,0.00019078,296.9419956,20,3,0.8,https://doi.org/10.2478/s11532-012-0144-9,H
(SrO)1(CeO2)0.95(Gd2O3)0.025,0.001882481,809.3317473,20,3,7,https://doi.org/10.2478/s11532-012-0144-9,H
(SrO)1(CeO2)0.95(Gd2O3)0.025,0.000938521,706.9234289,20,3,7,https://doi.org/10.2478/s11532-012-0144-9,H
(SrO)1(CeO2)0.95(Gd2O3)0.025,0.000416667,605.7129404,20,3,7,https://doi.org/10.2478/s11532-012-0144-9,H
(SrO)1(CeO2)0.95(Gd2O3)0.025,0.000152911,500.1943571,20,3,7,https://doi.org/10.2478/s11532-012-0144-9,H
(SrO)1(CeO2)0.95(Gd2O3)0.025,4.61606E-05,397.8689204,20,3,7,https://doi.org/10.2478/s11532-012-0144-9,H
(SrO)1(CeO2)0.95(Gd2O3)0.025,7.27704E-06,297.4625019,20,3,7,https://doi.org/10.2478/s11532-012-0144-9,H
(SrO)1(ZrO2)0.95(Y2O3)0.025,0.003380962,1006.363302,0,0,,https://doi.org/10.1016/0167-2738(96)00087-2,H
(SrO)1(ZrO2)0.95(Y2O3)0.025,0.002931499,949.4414515,0,0,,https://doi.org/10.1016/0167-2738(96)00087-2,H
(SrO)1(ZrO2)0.95(Y2O3)0.025,0.002496178,899.5329616,0,0,,https://doi.org/10.1016/0167-2738(96)00087-2,H
(SrO)1(ZrO2)0.95(Y2O3)0.025,0.002014413,841.6130487,0,0,,https://doi.org/10.1016/0167-2738(96)00087-2,H
(SrO)1(ZrO2)0.95(Y2O3)0.025,0.001746743,796.3475766,0,0,,https://doi.org/10.1016/0167-2738(96)00087-2,H
(SrO)1(ZrO2)0.95(Y2O3)0.025,0.001515289,744.6946538,0,0,,https://doi.org/10.1016/0167-2738(96)00087-2,H
(SrO)1(ZrO2)0.95(Y2O3)0.025,0.001314409,699.2941325,0,0,,https://doi.org/10.1016/0167-2738(96)00087-2,H
(SrO)1(ZrO2)0.95(Y2O3)0.025,0.000935452,648.2427746,0,0,,https://doi.org/10.1016/0167-2738(96)00087-2,H
(SrO)1(ZrO2)0.95(Y2O3)0.025,0.000741945,599.8880433,0,0,,https://doi.org/10.1016/0167-2738(96)00087-2,H
(SrO)0.995(CeO2)0.95(Y2O3)0.025,0.007421875,800,8.32061E-21,1,,https://doi.org/10.1016/S0167-2738(01)00951-1,H+E
(SrO)0.995(CeO2)0.95(Y2O3)0.025,0.0071875,800,3.4833E-20,1,,https://doi.org/10.1016/S0167-2738(01)00951-1,H+E
(SrO)0.995(CeO2)0.95(Y2O3)0.025,0.006796875,800,2.08343E-19,1,,https://doi.org/10.1016/S0167-2738(01)00951-1,H+E
(SrO)0.995(CeO2)0.95(Y2O3)0.025,0.00671875,800,8.73829E-19,1,,https://doi.org/10.1016/S0167-2738(01)00951-1,H+E
(SrO)0.995(CeO2)0.95(Y2O3)0.025,0.006640625,800,3.06332E-18,1,,https://doi.org/10.1016/S0167-2738(01)00951-1,H+E
(SrO)0.995(CeO2)0.95(Y2O3)0.025,0.006328125,800,2.19416E-17,1,,https://doi.org/10.1016/S0167-2738(01)00951-1,H+E
(SrO)0.995(CeO2)0.95(Y2O3)0.025,0.006171875,800,7.68471E-17,1,,https://doi.org/10.1016/S0167-2738(01)00951-1,H+E
(SrO)0.995(CeO2)0.95(Y2O3)0.025,0.006015625,800,2.69146E-16,1,,https://doi.org/10.1016/S0167-2738(01)00951-1,H+E
(SrO)0.995(CeO2)0.95(Y2O3)0.025,0.006171875,800,1.35436E-15,1,,https://doi.org/10.1016/S0167-2738(01)00951-1,H+E
(SrO)0.995(CeO2)0.95(Y2O3)0.025,0.005859375,800,1.61433E-15,1,,https://doi.org/10.1016/S0167-2738(01)00951-1,H+E
(SrO)0.995(CeO2)0.95(Y2O3)0.025,0.00578125,800,4.73017E-15,1,,https://doi.org/10.1016/S0167-2738(01)00951-1,H+E
(SrO)0.995(CeO2)0.95(Y2O3)0.025,0.00609375,800,9.72805E-15,1,,https://doi.org/10.1016/S0167-2738(01)00951-1,H+E
(SrO)0.995(CeO2)0.95(Y2O3)0.025,0.008046875,800,0.507378016,1,,https://doi.org/10.1016/S0167-2738(01)00951-1,H+E
(SrO)0.995(CeO2)0.95(Y2O3)0.025,0.00828125,800,0.608737654,1,,https://doi.org/10.1016/S0167-2738(01)00951-1,H+E
(SrO)0.995(CeO2)0.95(Y2O3)0.025,0.00859375,800,1.046399587,1,,https://doi.org/10.1016/S0167-2738(01)00951-1,H+E
(SrO)0.995(CeO2)0.95(Y2O3)0.025,0.008984375,800,2.154032277,1,,https://doi.org/10.1016/S0167-2738(01)00951-1,H+E
(SrO)0.995(CeO2)0.95(Y2O3)0.025,0.009765625,800,5.329870299,1,,https://doi.org/10.1016/S0167-2738(01)00951-1,H+E
(SrO)0.995(CeO2)0.95(Y2O3)0.025,0.01046875,800,13.1757529,1,,https://doi.org/10.1016/S0167-2738(01)00951-1,H+E
(SrO)0.995(CeO2)0.95(Y2O3)0.025,0.01078125,800,18.93046208,1,,https://doi.org/10.1016/S0167-2738(01)00951-1,H+E
(SrO)0.995(CeO2)0.95(Y2O3)0.025,0.012265625,800,56.51425019,1,,https://doi.org/10.1016/S0167-2738(01)00951-1,H+E
(SrO)0.995(CeO2)0.95(Y2O3)0.025,0.002181347,600,1.81371E-21,1,,https://doi.org/10.1016/S0167-2738(01)00951-1,H+E
(SrO)0.995(CeO2)0.95(Y2O3)0.025,0.002142487,600,6.36412E-21,1,,https://doi.org/10.1016/S0167-2738(01)00951-1,H+E
(SrO)0.995(CeO2)0.95(Y2O3)0.025,0.002111399,600,1.56008E-20,1,,https://doi.org/10.1016/S0167-2738(01)00951-1,H+E
(SrO)0.995(CeO2)0.95(Y2O3)0.025,0.002119171,600,5.47416E-20,1,,https://doi.org/10.1016/S0167-2738(01)00951-1,H+E
(SrO)0.995(CeO2)0.95(Y2O3)0.025,0.002088083,600,1.34192E-19,1,,https://doi.org/10.1016/S0167-2738(01)00951-1,H+E
(SrO)0.995(CeO2)0.95(Y2O3)0.025,0.002056995,600,3.93564E-19,1,,https://doi.org/10.1016/S0167-2738(01)00951-1,H+E
(SrO)0.995(CeO2)0.95(Y2O3)0.025,0.002041451,600,1.65222E-18,1,,https://doi.org/10.1016/S0167-2738(01)00951-1,H+E
(SrO)0.995(CeO2)0.95(Y2O3)0.025,0.002025907,600,4.84572E-18,1,,https://doi.org/10.1016/S0167-2738(01)00951-1,H+E
(SrO)0.995(CeO2)0.95(Y2O3)0.025,0.002010363,600,2.03428E-17,1,,https://doi.org/10.1016/S0167-2738(01)00951-1,H+E
(SrO)0.995(CeO2)0.95(Y2O3)0.025,0.002002591,600,4.1681E-17,1,,https://doi.org/10.1016/S0167-2738(01)00951-1,H+E
(SrO)0.995(CeO2)0.95(Y2O3)0.025,0.002111399,600,34.09653763,1,,https://doi.org/10.1016/S0167-2738(01)00951-1,H+E
(SrO)0.995(CeO2)0.95(Y2O3)0.025,0.002142487,600,83.58308181,1,,https://doi.org/10.1016/S0167-2738(01)00951-1,H+E
(SrO)0.995(CeO2)0.95(Y2O3)0.025,0.002181347,600,100,1,,https://doi.org/10.1016/S0167-2738(01)00951-1,H+E
(BaO)1(Fe2O3)0.475(In2O3)0.025,1.850393701,300,20,0,,https://doi.org/10.1016/j.jpowsour.2016.05.089,O+E
(BaO)1(Fe2O3)0.475(In2O3)0.025,2.086614173,308.1632653,20,0,,https://doi.org/10.1016/j.jpowsour.2016.05.089,O+E
(BaO)1(Fe2O3)0.475(In2O3)0.025,2.204724409,320.4081633,20,0,,https://doi.org/10.1016/j.jpowsour.2016.05.089,O+E
(BaO)1(Fe2O3)0.475(In2O3)0.025,2.401574803,328.5714286,20,0,,https://doi.org/10.1016/j.jpowsour.2016.05.089,O+E
(BaO)1(Fe2O3)0.475(In2O3)0.025,2.677165354,338.7755102,20,0,,https://doi.org/10.1016/j.jpowsour.2016.05.089,O+E
(BaO)1(Fe2O3)0.475(In2O3)0.025,2.913385827,346.9387755,20,0,,https://doi.org/10.1016/j.jpowsour.2016.05.089,O+E
(BaO)1(Fe2O3)0.475(In2O3)0.025,3.228346457,359.1836735,20,0,,https://doi.org/10.1016/j.jpowsour.2016.05.089,O+E
(BaO)1(Fe2O3)0.475(In2O3)0.025,3.503937008,367.3469388,20,0,,https://doi.org/10.1016/j.jpowsour.2016.05.089,O+E
(BaO)1(Fe2O3)0.475(In2O3)0.025,3.779527559,377.5510204,20,0,,https://doi.org/10.1016/j.jpowsour.2016.05.089,O+E
(BaO)1(Fe2O3)0.475(In2O3)0.025,3.937007874,389.7959184,20,0,,https://doi.org/10.1016/j.jpowsour.2016.05.089,O+E
(BaO)1(Fe2O3)0.475(In2O3)0.025,4.094488189,395.9183673,20,0,,https://doi.org/10.1016/j.jpowsour.2016.05.089,O+E
(BaO)1(Fe2O3)0.475(In2O3)0.025,4.330708661,410.2040816,20,0,,https://doi.org/10.1016/j.jpowsour.2016.05.089,O+E
(BaO)1(Fe2O3)0.475(In2O3)0.025,4.763779528,420.4081633,20,0,,https://doi.org/10.1016/j.jpowsour.2016.05.089,O+E
(BaO)1(Fe2O3)0.475(In2O3)0.025,4.960629921,430.6122449,20,0,,https://doi.org/10.1016/j.jpowsour.2016.05.089,O+E