Composition,Conductivity (S/cm),Temperature (degC),PO2 (%),PH2O (%),Grainsize,Ref,Carrier Type
(La2O3)0.4(SrO)0.2(Ga2O3)0.4(MgO)0.1(CoO)0.1,0.074479699,593.5401645,1.00E-03,0,,https://doi.org/10.1021/cm981145w,O
(La2O3)0.4(SrO)0.2(Ga2O3)0.4(MgO)0.1(CoO)0.1,0.049197511,540.0563798,1.00E-03,0,,https://doi.org/10.1021/cm981145w,O
(La2O3)0.4(SrO)0.2(Ga2O3)0.4(MgO)0.1(CoO)0.1,0.029780614,491.0825432,1.00E-03,0,,https://doi.org/10.1021/cm981145w,O
(La2O3)0.4(SrO)0.2(Ga2O3)0.4(MgO)0.1(CoO)0.1,0.503664416,950,2.10887E-18,0,,https://doi.org/10.1021/cm981145w,O
(La2O3)0.4(SrO)0.2(Ga2O3)0.4(MgO)0.1(CoO)0.1,0.563844812,950,1.39663E-16,0,,https://doi.org/10.1021/cm981145w,O
(La2O3)0.4(SrO)0.2(Ga2O3)0.4(MgO)0.1(CoO)0.1,0.485982664,950,2.52836E-10,0,,https://doi.org/10.1021/cm981145w,O
(La2O3)0.4(SrO)0.2(Ga2O3)0.4(MgO)0.1(CoO)0.1,0.508759768,950,0.003279683,0,,https://doi.org/10.1021/cm981145w,O
(La2O3)0.4(SrO)0.2(Ga2O3)0.4(MgO)0.1(CoO)0.1,0.503919933,950,11.85831782,0,,https://doi.org/10.1021/cm981145w,O
(La2O3)0.4(SrO)0.2(Ga2O3)0.4(MgO)0.1(CoO)0.1,0.50372337,950,108.5380245,0,,https://doi.org/10.1021/cm981145w,O
(BaO)1(ZrO2)0.3(CeO2)0.5(Y2O3)0.05(YbO)0.1,0.011752918,800,0,2,,https://doi.org/10.1016/j.jpowsour.2013.07.060,H
(BaO)1(ZrO2)0.3(CeO2)0.5(Y2O3)0.05(YbO)0.1,0.009855967,750,0,2,,https://doi.org/10.1016/j.jpowsour.2013.07.060,H
(BaO)1(ZrO2)0.3(CeO2)0.5(Y2O3)0.05(YbO)0.1,0.008499035,700,0,2,,https://doi.org/10.1016/j.jpowsour.2013.07.060,H
(BaO)1(ZrO2)0.3(CeO2)0.5(Y2O3)0.05(YbO)0.1,0.007536851,650,0,2,,https://doi.org/10.1016/j.jpowsour.2013.07.060,H
(BaO)1(ZrO2)0.3(CeO2)0.5(Y2O3)0.05(YbO)0.1,0.006934694,600,0,2,,https://doi.org/10.1016/j.jpowsour.2013.07.060,H
(BaO)1(ZrO2)0.3(CeO2)0.5(Y2O3)0.05(YbO)0.1,0.006557932,550,0,2,,https://doi.org/10.1016/j.jpowsour.2013.07.060,H
(BaO)1(ZrO2)0.3(CeO2)0.5(Y2O3)0.05(YbO)0.1,0.005494678,500,0,2,,https://doi.org/10.1016/j.jpowsour.2013.07.060,H
(BaO)1(ZrO2)0.3(CeO2)0.5(Y2O3)0.05(YbO)0.1,0.004003747,450,0,2,,https://doi.org/10.1016/j.jpowsour.2013.07.060,H
(BaO)1(ZrO2)0.3(CeO2)0.5(Y2O3)0.05(YbO)0.1,0.002467231,400,0,2,,https://doi.org/10.1016/j.jpowsour.2013.07.060,H
(BaO)1(CeO2)0.5(ZrO2)0.3(Y2O3)0.05(YbO)0.1,0.090123637,895.5099143,20,1.9,4.1,https://doi.org/10.1016/j.electacta.2017.08.149,H+E
(BaO)1(CeO2)0.5(ZrO2)0.3(Y2O3)0.05(YbO)0.1,0.07768239,847.9321012,20,1.9,4.1,https://doi.org/10.1016/j.electacta.2017.08.149,H+E
(BaO)1(CeO2)0.5(ZrO2)0.3(Y2O3)0.05(YbO)0.1,0.064040043,798.1072187,20,1.9,4.1,https://doi.org/10.1016/j.electacta.2017.08.149,H+E
(BaO)1(CeO2)0.5(ZrO2)0.3(Y2O3)0.05(YbO)0.1,0.055199543,747.0397596,20,1.9,4.1,https://doi.org/10.1016/j.electacta.2017.08.149,H+E
(BaO)1(CeO2)0.5(ZrO2)0.3(Y2O3)0.05(YbO)0.1,0.046186614,698.9878502,20,1.9,4.1,https://doi.org/10.1016/j.electacta.2017.08.149,H+E
(BaO)1(CeO2)0.5(ZrO2)0.3(Y2O3)0.05(YbO)0.1,0.037514015,647.8870552,20,1.9,4.1,https://doi.org/10.1016/j.electacta.2017.08.149,H+E
(BaO)1(CeO2)0.5(ZrO2)0.3(Y2O3)0.05(YbO)0.1,0.026263635,599.2668386,20,1.9,4.1,https://doi.org/10.1016/j.electacta.2017.08.149,H+E
(BaO)1(CeO2)0.5(ZrO2)0.3(Y2O3)0.05(YbO)0.1,0.019225204,549.6448474,20,1.9,4.1,https://doi.org/10.1016/j.electacta.2017.08.149,H+E
(BaO)1(CeO2)0.5(ZrO2)0.3(Y2O3)0.05(YbO)0.1,0.013459603,500.1008027,20,1.9,4.1,https://doi.org/10.1016/j.electacta.2017.08.149,H+E
(BaO)1(CeO2)0.5(ZrO2)0.3(Y2O3)0.05(YbO)0.1,0.040743928,895.5099143,0,1.9,4.1,https://doi.org/10.1016/j.electacta.2017.08.149,H
(BaO)1(CeO2)0.5(ZrO2)0.3(Y2O3)0.05(YbO)0.1,0.035250868,847.9321012,0,1.9,4.1,https://doi.org/10.1016/j.electacta.2017.08.149,H
(BaO)1(CeO2)0.5(ZrO2)0.3(Y2O3)0.05(YbO)0.1,0.03278863,798.1072187,0,1.9,4.1,https://doi.org/10.1016/j.electacta.2017.08.149,H
(BaO)1(CeO2)0.5(ZrO2)0.3(Y2O3)0.05(YbO)0.1,0.030943258,747.0397596,0,1.9,4.1,https://doi.org/10.1016/j.electacta.2017.08.149,H
(BaO)1(CeO2)0.5(ZrO2)0.3(Y2O3)0.05(YbO)0.1,0.029201745,698.9878502,0,1.9,4.1,https://doi.org/10.1016/j.electacta.2017.08.149,H
(BaO)1(CeO2)0.5(ZrO2)0.3(Y2O3)0.05(YbO)0.1,0.027558246,647.8870552,0,1.9,4.1,https://doi.org/10.1016/j.electacta.2017.08.149,H
(BaO)1(CeO2)0.5(ZrO2)0.3(Y2O3)0.05(YbO)0.1,0.025264792,599.2668386,0,1.9,4.1,https://doi.org/10.1016/j.electacta.2017.08.149,H
(BaO)1(CeO2)0.5(ZrO2)0.3(Y2O3)0.05(YbO)0.1,0.022829193,549.6448474,0,1.9,4.1,https://doi.org/10.1016/j.electacta.2017.08.149,H
(BaO)1(CeO2)0.5(ZrO2)0.3(Y2O3)0.05(YbO)0.1,0.017590696,500.1008027,0,1.9,4.1,https://doi.org/10.1016/j.electacta.2017.08.149,H
(BaO)1(CeO2)0.4(ZrO2)0.3(In2O3)0.05(Y2O3)0.1,0.005735749,673.9992206,20,0,,https://doi.org/10.1016/j.jallcom.2012.11.197,H
(BaO)1(CeO2)0.4(ZrO2)0.3(In2O3)0.05(Y2O3)0.1,0.004217303,625.0044346,20,0,,https://doi.org/10.1016/j.jallcom.2012.11.197,H
(BaO)1(CeO2)0.4(ZrO2)0.3(In2O3)0.05(Y2O3)0.1,0.003029064,574.871598,20,0,,https://doi.org/10.1016/j.jallcom.2012.11.197,H
(BaO)1(CeO2)0.4(ZrO2)0.3(In2O3)0.05(Y2O3)0.1,0.001748646,524.767564,20,0,,https://doi.org/10.1016/j.jallcom.2012.11.197,H
(BaO)1(CeO2)0.4(ZrO2)0.3(In2O3)0.05(Y2O3)0.1,0.000957555,475.6136784,20,0,,https://doi.org/10.1016/j.jallcom.2012.11.197,H
(BaO)1(CeO2)0.4(ZrO2)0.3(In2O3)0.05(Y2O3)0.1,0.000512791,425.6774008,20,0,,https://doi.org/10.1016/j.jallcom.2012.11.197,H
(BaO)1(CeO2)0.4(ZrO2)0.3(In2O3)0.05(Y2O3)0.1,0.008286807,673.9992206,20,1.9,,https://doi.org/10.1016/j.jallcom.2012.11.197,H
(BaO)1(CeO2)0.4(ZrO2)0.3(In2O3)0.05(Y2O3)0.1,0.00645475,625.0044346,20,1.9,,https://doi.org/10.1016/j.jallcom.2012.11.197,H
(BaO)1(CeO2)0.4(ZrO2)0.3(In2O3)0.05(Y2O3)0.1,0.004610788,574.871598,20,1.9,,https://doi.org/10.1016/j.jallcom.2012.11.197,H
(BaO)1(CeO2)0.4(ZrO2)0.3(In2O3)0.05(Y2O3)0.1,0.003017884,524.767564,20,1.9,,https://doi.org/10.1016/j.jallcom.2012.11.197,H
(BaO)1(CeO2)0.4(ZrO2)0.3(In2O3)0.05(Y2O3)0.1,0.001980591,475.6136784,20,1.9,,https://doi.org/10.1016/j.jallcom.2012.11.197,H
(BaO)1(CeO2)0.4(ZrO2)0.3(In2O3)0.05(Y2O3)0.1,0.00102562,425.6774008,20,1.9,,https://doi.org/10.1016/j.jallcom.2012.11.197,H
(La2O3)0.4(SrO)0.2(Ga2O3)0.4(MgO)0.115(CoO)0.085,0.408671552,931.9252419,1.00E-03,0,,https://doi.org/10.1021/cm981145w,O
(La2O3)0.4(SrO)0.2(Ga2O3)0.4(MgO)0.115(CoO)0.085,0.335788912,883.1181435,1.00E-03,0,,https://doi.org/10.1021/cm981145w,O
(La2O3)0.4(SrO)0.2(Ga2O3)0.4(MgO)0.115(CoO)0.085,0.269947693,834.5181892,1.00E-03,0,,https://doi.org/10.1021/cm981145w,O
(La2O3)0.4(SrO)0.2(Ga2O3)0.4(MgO)0.115(CoO)0.085,0.217016568,789.8394104,1.00E-03,0,,https://doi.org/10.1021/cm981145w,O
(La2O3)0.4(SrO)0.2(Ga2O3)0.4(MgO)0.115(CoO)0.085,0.170697629,742.5670867,1.00E-03,0,,https://doi.org/10.1021/cm981145w,O
(La2O3)0.4(SrO)0.2(Ga2O3)0.4(MgO)0.115(CoO)0.085,0.123040303,696.5682944,1.00E-03,0,,https://doi.org/10.1021/cm981145w,O
(La2O3)0.4(SrO)0.2(Ga2O3)0.4(MgO)0.115(CoO)0.085,0.083067527,639.7248501,1.00E-03,0,,https://doi.org/10.1021/cm981145w,O
(La2O3)0.4(SrO)0.2(Ga2O3)0.4(MgO)0.115(CoO)0.085,0.056080925,595.7381103,1.00E-03,0,,https://doi.org/10.1021/cm981145w,O
(La2O3)0.4(SrO)0.2(Ga2O3)0.4(MgO)0.115(CoO)0.085,0.033947335,536.2144123,1.00E-03,0,,https://doi.org/10.1021/cm981145w,O
(La2O3)0.4(SrO)0.2(Ga2O3)0.4(MgO)0.115(CoO)0.085,0.019246873,489.3817474,1.00E-03,0,,https://doi.org/10.1021/cm981145w,O
(La2O3)0.4(SrO)0.2(Ga2O3)0.4(MgO)0.115(CoO)0.085,0.435197967,950,2.67812E-18,0,,https://doi.org/10.1021/cm981145w,O
(La2O3)0.4(SrO)0.2(Ga2O3)0.4(MgO)0.115(CoO)0.085,0.427807648,950,4.3678E-16,0,,https://doi.org/10.1021/cm981145w,O
(La2O3)0.4(SrO)0.2(Ga2O3)0.4(MgO)0.115(CoO)0.085,0.430352169,950,1.0582E-10,0,,https://doi.org/10.1021/cm981145w,O
(La2O3)0.4(SrO)0.2(Ga2O3)0.4(MgO)0.115(CoO)0.085,0.425693173,950,0.000711311,0,,https://doi.org/10.1021/cm981145w,O
(La2O3)0.4(SrO)0.2(Ga2O3)0.4(MgO)0.115(CoO)0.085,0.428475796,950,6.223394358,0,,https://doi.org/10.1021/cm981145w,O
(La2O3)0.4(SrO)0.2(Ga2O3)0.4(MgO)0.115(CoO)0.085,0.428275242,950,88.69474997,0,,https://doi.org/10.1021/cm981145w,O
(Pr2O3)0.2(SrO)0.6(CoO2)0.19(Fe2O3)0.38(MoO2)0.05,146.3963964,100,20,0,,https://doi.org/10.1016/j.jpowsour.2014.11.141,O+E
(Pr2O3)0.2(SrO)0.6(CoO2)0.19(Fe2O3)0.38(MoO2)0.05,188.9466389,150.4504505,20,0,,https://doi.org/10.1016/j.jpowsour.2014.11.141,O+E
(Pr2O3)0.2(SrO)0.6(CoO2)0.19(Fe2O3)0.38(MoO2)0.05,219.95842,200.9009009,20,0,,https://doi.org/10.1016/j.jpowsour.2014.11.141,O+E
(Pr2O3)0.2(SrO)0.6(CoO2)0.19(Fe2O3)0.38(MoO2)0.05,250.970201,251.3513514,20,0,,https://doi.org/10.1016/j.jpowsour.2014.11.141,O+E
(Pr2O3)0.2(SrO)0.6(CoO2)0.19(Fe2O3)0.38(MoO2)0.05,281.964657,298.1981982,20,0,,https://doi.org/10.1016/j.jpowsour.2014.11.141,O+E
(Pr2O3)0.2(SrO)0.6(CoO2)0.19(Fe2O3)0.38(MoO2)0.05,305.3014553,352.2522523,20,0,,https://doi.org/10.1016/j.jpowsour.2014.11.141,O+E
(Pr2O3)0.2(SrO)0.6(CoO2)0.19(Fe2O3)0.38(MoO2)0.05,317.0824671,402.7027027,20,0,,https://doi.org/10.1016/j.jpowsour.2014.11.141,O+E
(Pr2O3)0.2(SrO)0.6(CoO2)0.19(Fe2O3)0.38(MoO2)0.05,325,449.5495495,20,0,,https://doi.org/10.1016/j.jpowsour.2014.11.141,O+E
(Pr2O3)0.2(SrO)0.6(CoO2)0.19(Fe2O3)0.38(MoO2)0.05,325.2425502,500,20,0,,https://doi.org/10.1016/j.jpowsour.2014.11.141,E
(Pr2O3)0.2(SrO)0.6(CoO2)0.19(Fe2O3)0.38(MoO2)0.05,310.1004851,550.4504505,20,0,,https://doi.org/10.1016/j.jpowsour.2014.11.141,E
(Pr2O3)0.2(SrO)0.6(CoO2)0.19(Fe2O3)0.38(MoO2)0.05,283.4199584,600.9009009,20,0,,https://doi.org/10.1016/j.jpowsour.2014.11.141,E
(Pr2O3)0.2(SrO)0.6(CoO2)0.19(Fe2O3)0.38(MoO2)0.05,245.2009702,651.3513514,20,0,,https://doi.org/10.1016/j.jpowsour.2014.11.141,E
(Pr2O3)0.2(SrO)0.6(CoO2)0.19(Fe2O3)0.38(MoO2)0.05,218.5031185,698.1981982,20,0,,https://doi.org/10.1016/j.jpowsour.2014.11.141,E
(Pr2O3)0.2(SrO)0.6(CoO2)0.19(Fe2O3)0.38(MoO2)0.05,184.1302841,748.6486486,20,0,,https://doi.org/10.1016/j.jpowsour.2014.11.141,E
(Pr2O3)0.2(SrO)0.6(CoO2)0.19(Fe2O3)0.38(MoO2)0.05,153.6036036,799.0990991,20,0,,https://doi.org/10.1016/j.jpowsour.2014.11.141,E
(Pr2O3)0.2(SrO)0.6(CoO2)0.19(Fe2O3)0.38(MoO2)0.05,134.6153846,849.5495495,20,0,,https://doi.org/10.1016/j.jpowsour.2014.11.141,E
(Pr2O3)0.2(SrO)0.6(CoO2)0.19(Fe2O3)0.38(MoO2)0.05,115.6271656,900,20,0,,https://doi.org/10.1016/j.jpowsour.2014.11.141,E
(BaO)0.8(SrO)0.2(CeO2)0.65(ZrO2)0.25(Y2O3)0.05,0.000687876,500,20,3,,https://doi.org/10.1016/j.jare.2016.12.006,H
(BaO)0.8(SrO)0.2(CeO2)0.65(ZrO2)0.25(Y2O3)0.05,3.34348E-06,400,20,3,,https://doi.org/10.1016/j.jare.2016.12.006,H
(BaO)0.8(SrO)0.2(CeO2)0.65(ZrO2)0.25(Y2O3)0.05,7.86E-07,300,20,3,,https://doi.org/10.1016/j.jare.2016.12.006,H
(BaO)0.8(SrO)0.2(CeO2)0.65(ZrO2)0.25(Y2O3)0.05,5.72308E-05,500,20,0,,https://doi.org/10.1016/j.jare.2016.12.006,H
(BaO)0.8(SrO)0.2(CeO2)0.65(ZrO2)0.25(Y2O3)0.05,7.12447E-06,400,20,0,,https://doi.org/10.1016/j.jare.2016.12.006,H
(BaO)0.8(SrO)0.2(CeO2)0.65(ZrO2)0.25(Y2O3)0.05,1.3605E-06,300,20,0,,https://doi.org/10.1016/j.jare.2016.12.006,H
(BaO)0.84(SrO)0.16(CeO2)0.65(ZrO2)0.25(Y2O3)0.05,0.000897025,500,20,3,,https://doi.org/10.1016/j.jare.2016.12.006,H
(BaO)0.84(SrO)0.16(CeO2)0.65(ZrO2)0.25(Y2O3)0.05,1.22767E-05,400,20,3,,https://doi.org/10.1016/j.jare.2016.12.006,H
(BaO)0.84(SrO)0.16(CeO2)0.65(ZrO2)0.25(Y2O3)0.05,1.74195E-06,300,20,3,,https://doi.org/10.1016/j.jare.2016.12.006,H
(BaO)0.84(SrO)0.16(CeO2)0.65(ZrO2)0.25(Y2O3)0.05,0.00013937,500,20,0,,https://doi.org/10.1016/j.jare.2016.12.006,H
(BaO)0.84(SrO)0.16(CeO2)0.65(ZrO2)0.25(Y2O3)0.05,1.87465E-05,400,20,0,,https://doi.org/10.1016/j.jare.2016.12.006,H
(BaO)0.84(SrO)0.16(CeO2)0.65(ZrO2)0.25(Y2O3)0.05,1.44176E-06,300,20,0,,https://doi.org/10.1016/j.jare.2016.12.006,H
(BaO)0.92(SrO)0.08(CeO2)0.65(ZrO2)0.25(Y2O3)0.05,0.001139125,500,20,3,,https://doi.org/10.1016/j.jare.2016.12.006,H
(BaO)0.92(SrO)0.08(CeO2)0.65(ZrO2)0.25(Y2O3)0.05,9.99378E-05,400,20,3,,https://doi.org/10.1016/j.jare.2016.12.006,H
(BaO)0.92(SrO)0.08(CeO2)0.65(ZrO2)0.25(Y2O3)0.05,2.04258E-06,300,20,3,,https://doi.org/10.1016/j.jare.2016.12.006,H
(BaO)0.92(SrO)0.08(CeO2)0.65(ZrO2)0.25(Y2O3)0.05,0.000172428,500,20,0,,https://doi.org/10.1016/j.jare.2016.12.006,H
(BaO)0.92(SrO)0.08(CeO2)0.65(ZrO2)0.25(Y2O3)0.05,3.10055E-05,400,20,0,,https://doi.org/10.1016/j.jare.2016.12.006,H
(BaO)0.92(SrO)0.08(CeO2)0.65(ZrO2)0.25(Y2O3)0.05,1.89041E-06,300,20,0,,https://doi.org/10.1016/j.jare.2016.12.006,H
(BaO)0.96(SrO)0.04(CeO2)0.65(ZrO2)0.25(Y2O3)0.05,0.002459615,500,20,3,,https://doi.org/10.1016/j.jare.2016.12.006,H
(BaO)0.96(SrO)0.04(CeO2)0.65(ZrO2)0.25(Y2O3)0.05,0.000281397,400,20,3,,https://doi.org/10.1016/j.jare.2016.12.006,H
(BaO)0.96(SrO)0.04(CeO2)0.65(ZrO2)0.25(Y2O3)0.05,5.03631E-06,300,20,3,,https://doi.org/10.1016/j.jare.2016.12.006,H
(BaO)0.96(SrO)0.04(CeO2)0.65(ZrO2)0.25(Y2O3)0.05,0.00050956,500,20,0,,https://doi.org/10.1016/j.jare.2016.12.006,H
(BaO)0.96(SrO)0.04(CeO2)0.65(ZrO2)0.25(Y2O3)0.05,7.55027E-05,400,20,0,,https://doi.org/10.1016/j.jare.2016.12.006,H
(BaO)0.96(SrO)0.04(CeO2)0.65(ZrO2)0.25(Y2O3)0.05,4.02043E-06,300,20,0,,https://doi.org/10.1016/j.jare.2016.12.006,H
(La2O3)0.4(SrO)0.2(Ga2O3)0.4(MgO)0.15(CoO)0.05,0.399848743,953.4995524,1.00E-03,0,,https://doi.org/10.1021/cm981145w,O
(La2O3)0.4(SrO)0.2(Ga2O3)0.4(MgO)0.15(CoO)0.05,0.328539565,894.945439,1.00E-03,0,,https://doi.org/10.1021/cm981145w,O
(La2O3)0.4(SrO)0.2(Ga2O3)0.4(MgO)0.15(CoO)0.05,0.269947693,849.031122,1.00E-03,0,,https://doi.org/10.1021/cm981145w,O
(La2O3)0.4(SrO)0.2(Ga2O3)0.4(MgO)0.15(CoO)0.05,0.207747375,793.1478599,1.00E-03,0,,https://doi.org/10.1021/cm981145w,O
(La2O3)0.4(SrO)0.2(Ga2O3)0.4(MgO)0.15(CoO)0.05,0.149746076,739.5646711,1.00E-03,0,,https://doi.org/10.1021/cm981145w,O
(La2O3)0.4(SrO)0.2(Ga2O3)0.4(MgO)0.15(CoO)0.05,0.107938246,696.5682944,1.00E-03,0,,https://doi.org/10.1021/cm981145w,O
(La2O3)0.4(SrO)0.2(Ga2O3)0.4(MgO)0.15(CoO)0.05,0.071298529,644.6155392,1.00E-03,0,,https://doi.org/10.1021/cm981145w,O
(La2O3)0.4(SrO)0.2(Ga2O3)0.4(MgO)0.15(CoO)0.05,0.045084622,595.7381103,1.00E-03,0,,https://doi.org/10.1021/cm981145w,O
(La2O3)0.4(SrO)0.2(Ga2O3)0.4(MgO)0.15(CoO)0.05,0.0255613,545.8882247,1.00E-03,0,,https://doi.org/10.1021/cm981145w,O
(La2O3)0.4(SrO)0.2(Ga2O3)0.4(MgO)0.15(CoO)0.05,0.011153043,486.0027701,1.00E-03,0,,https://doi.org/10.1021/cm981145w,O
(La2O3)0.4(SrO)0.2(Ga2O3)0.4(MgO)0.15(CoO)0.05,0.401292243,950,2.16726E-18,0,,https://doi.org/10.1021/cm981145w,O
(La2O3)0.4(SrO)0.2(Ga2O3)0.4(MgO)0.15(CoO)0.05,0.445522931,950,4.34655E-16,0,,https://doi.org/10.1021/cm981145w,O
(La2O3)0.4(SrO)0.2(Ga2O3)0.4(MgO)0.15(CoO)0.05,0.390085304,950,1.39663E-08,0,,https://doi.org/10.1021/cm981145w,O
(La2O3)0.4(SrO)0.2(Ga2O3)0.4(MgO)0.15(CoO)0.05,0.405209634,950,0.024722672,0,,https://doi.org/10.1021/cm981145w,O
(La2O3)0.4(SrO)0.2(Ga2O3)0.4(MgO)0.15(CoO)0.05,0.385531187,950,12.24620977,0,,https://doi.org/10.1021/cm981145w,O
(La2O3)0.4(SrO)0.2(Ga2O3)0.4(MgO)0.15(CoO)0.05,0.385365768,950,139.8673684,0,,https://doi.org/10.1021/cm981145w,O
(La2O3)0.4275(SrO)0.095(Cr2O3)0.425(MgO)0.1(NiO)0.05,3.650477913,950,9.71274E-18,0,,https://doi.org/10.1016/j.ssi.2013.01.005,E
(La2O3)0.4275(SrO)0.095(Cr2O3)0.425(MgO)0.1(NiO)0.05,4.575820201,950,3.93493E-17,0,,https://doi.org/10.1016/j.ssi.2013.01.005,E
(La2O3)0.4275(SrO)0.095(Cr2O3)0.425(MgO)0.1(NiO)0.05,5.866184448,950,1E-16,0,,https://doi.org/10.1016/j.ssi.2013.01.005,E
(La2O3)0.4275(SrO)0.095(Cr2O3)0.425(MgO)0.1(NiO)0.05,7.158873676,950,4.0513E-16,0,,https://doi.org/10.1016/j.ssi.2013.01.005,E
(La2O3)0.4275(SrO)0.095(Cr2O3)0.425(MgO)0.1(NiO)0.05,8.267889434,950,1.64131E-15,0,,https://doi.org/10.1016/j.ssi.2013.01.005,E
(La2O3)0.4275(SrO)0.095(Cr2O3)0.425(MgO)0.1(NiO)0.05,9.376905192,950,6.64944E-15,0,,https://doi.org/10.1016/j.ssi.2013.01.005,E
(La2O3)0.4275(SrO)0.095(Cr2O3)0.425(MgO)0.1(NiO)0.05,10.49057091,950,6.8461E-14,0,,https://doi.org/10.1016/j.ssi.2013.01.005,E
(La2O3)0.4275(SrO)0.095(Cr2O3)0.425(MgO)0.1(NiO)0.05,11.4159132,950,2.77356E-13,0,,https://doi.org/10.1016/j.ssi.2013.01.005,E
(La2O3)0.4275(SrO)0.095(Cr2O3)0.425(MgO)0.1(NiO)0.05,12.52725394,950,1.79128E-12,0,,https://doi.org/10.1016/j.ssi.2013.01.005,E
(La2O3)0.4275(SrO)0.095(Cr2O3)0.425(MgO)0.1(NiO)0.05,13.45492121,950,1.15689E-11,0,,https://doi.org/10.1016/j.ssi.2013.01.005,E
(La2O3)0.4275(SrO)0.095(Cr2O3)0.425(MgO)0.1(NiO)0.05,13.83621803,950,1.89881E-10,0,,https://doi.org/10.1016/j.ssi.2013.01.005,E
(La2O3)0.4275(SrO)0.095(Cr2O3)0.425(MgO)0.1(NiO)0.05,14.03849135,950,7.92016E-09,0,,https://doi.org/10.1016/j.ssi.2013.01.005,E
(La2O3)0.4275(SrO)0.095(Cr2O3)0.425(MgO)0.1(NiO)0.05,14.2361147,950,1.29994E-07,0,,https://doi.org/10.1016/j.ssi.2013.01.005,E
(La2O3)0.4275(SrO)0.095(Cr2O3)0.425(MgO)0.1(NiO)0.05,14.2477396,950,1.33839E-06,0,,https://doi.org/10.1016/j.ssi.2013.01.005,E
(La2O3)0.4275(SrO)0.095(Cr2O3)0.425(MgO)0.1(NiO)0.05,14.08266598,950,5.58259E-05,0,,https://doi.org/10.1016/j.ssi.2013.01.005,E
(La2O3)0.4275(SrO)0.095(Cr2O3)0.425(MgO)0.1(NiO)0.05,14.10126582,950,0.002328566,0,,https://doi.org/10.1016/j.ssi.2013.01.005,E
(La2O3)0.4275(SrO)0.095(Cr2O3)0.425(MgO)0.1(NiO)0.05,14.11986567,950,0.097127402,0,,https://doi.org/10.1016/j.ssi.2013.01.005,E
(La2O3)0.4275(SrO)0.095(Cr2O3)0.425(MgO)0.1(NiO)0.05,14.32213898,950,4.051304969,0,,https://doi.org/10.1016/j.ssi.2013.01.005,E
(La2O3)0.4275(SrO)0.095(Cr2O3)0.425(MgO)0.1(NiO)0.05,13.46153846,800,1.06082E-07,0,,https://doi.org/10.1016/j.ssi.2013.01.005,E
(La2O3)0.4275(SrO)0.095(Cr2O3)0.425(MgO)0.1(NiO)0.05,13.46153846,800,4.64159E-06,0,,https://doi.org/10.1016/j.ssi.2013.01.005,E
(La2O3)0.4275(SrO)0.095(Cr2O3)0.425(MgO)0.1(NiO)0.05,13.23076923,800,7.89652E-05,0,,https://doi.org/10.1016/j.ssi.2013.01.005,E
(La2O3)0.4275(SrO)0.095(Cr2O3)0.425(MgO)0.1(NiO)0.05,13.46153846,800,0.001343399,0,,https://doi.org/10.1016/j.ssi.2013.01.005,E
(La2O3)0.4275(SrO)0.095(Cr2O3)0.425(MgO)0.1(NiO)0.05,13.23076923,800,0.014251027,0,,https://doi.org/10.1016/j.ssi.2013.01.005,E
(La2O3)0.4275(SrO)0.095(Cr2O3)0.425(MgO)0.1(NiO)0.05,13.23076923,800,0.242446202,0,,https://doi.org/10.1016/j.ssi.2013.01.005,E
(La2O3)0.4275(SrO)0.095(Cr2O3)0.425(MgO)0.1(NiO)0.05,13.46153846,800,2.571913809,0,,https://doi.org/10.1016/j.ssi.2013.01.005,E
(La2O3)0.4275(SrO)0.095(Cr2O3)0.425(MgO)0.1(NiO)0.05,13.23076923,800,27.28333376,0,,https://doi.org/10.1016/j.ssi.2013.01.005,E
(BaO)1(CeO2)0.4(ZrO2)0.3(In2O3)0.1(Y2O3)0.05,0.003110659,673.9992206,20,0,,https://doi.org/10.1016/j.jallcom.2012.11.197,H
(BaO)1(CeO2)0.4(ZrO2)0.3(In2O3)0.1(Y2O3)0.05,0.001735772,625.0044346,20,0,,https://doi.org/10.1016/j.jallcom.2012.11.197,H
(BaO)1(CeO2)0.4(ZrO2)0.3(In2O3)0.1(Y2O3)0.05,0.001115767,574.871598,20,0,,https://doi.org/10.1016/j.jallcom.2012.11.197,H
(BaO)1(CeO2)0.4(ZrO2)0.3(In2O3)0.1(Y2O3)0.05,0.00066224,524.767564,20,0,,https://doi.org/10.1016/j.jallcom.2012.11.197,H
(BaO)1(CeO2)0.4(ZrO2)0.3(In2O3)0.1(Y2O3)0.05,0.000333682,475.6136784,20,0,,https://doi.org/10.1016/j.jallcom.2012.11.197,H
(BaO)1(CeO2)0.4(ZrO2)0.3(In2O3)0.1(Y2O3)0.05,0.000183932,425.6774008,20,0,,https://doi.org/10.1016/j.jallcom.2012.11.197,H
(BaO)1(CeO2)0.4(ZrO2)0.3(In2O3)0.1(Y2O3)0.05,0.003998713,673.9992206,20,1.9,,https://doi.org/10.1016/j.jallcom.2012.11.197,H
(BaO)1(CeO2)0.4(ZrO2)0.3(In2O3)0.1(Y2O3)0.05,0.00302644,625.0044346,20,1.9,,https://doi.org/10.1016/j.jallcom.2012.11.197,H
(BaO)1(CeO2)0.4(ZrO2)0.3(In2O3)0.1(Y2O3)0.05,0.002228362,574.871598,20,1.9,,https://doi.org/10.1016/j.jallcom.2012.11.197,H
(BaO)1(CeO2)0.4(ZrO2)0.3(In2O3)0.1(Y2O3)0.05,0.001414996,524.767564,20,1.9,,https://doi.org/10.1016/j.jallcom.2012.11.197,H
(BaO)1(CeO2)0.4(ZrO2)0.3(In2O3)0.1(Y2O3)0.05,0.000847957,475.6136784,20,1.9,,https://doi.org/10.1016/j.jallcom.2012.11.197,H
(BaO)1(CeO2)0.4(ZrO2)0.3(In2O3)0.1(Y2O3)0.05,0.000481436,425.6774008,20,1.9,,https://doi.org/10.1016/j.jallcom.2012.11.197,H
(BaO)1(CoO2)0.4(Fe2O3)0.2(ZrO2)0.1(Y2O2)0.05,1.328645258,575,2.00E+01,3.00E+00,,https://patents.google.com/patent/US10014529B2/en,O+H
(BaO)1(CoO2)0.4(Fe2O3)0.2(ZrO2)0.1(Y2O2)0.05,1.289201438,550,2.00E+01,3.00E+00,,https://patents.google.com/patent/US10014529B2/en,O+H
(BaO)1(CoO2)0.4(Fe2O3)0.2(ZrO2)0.1(Y2O2)0.05,1.213791969,525,2.00E+01,3.00E+00,,https://patents.google.com/patent/US10014529B2/en,O+H
(BaO)1(CoO2)0.4(Fe2O3)0.2(ZrO2)0.1(Y2O2)0.05,1.207710614,500,2.00E+01,3.00E+00,,https://patents.google.com/patent/US10014529B2/en,O+H