Composition,Conductivity (S/cm),Temperature (degC),PO2 (%),PH2O (%),Grainsize,Ref,Carrier Type
(La2O3)0.5(Mn2O3)0.5,130.0043775,1143.337686,100,0,,https://doi.org/10.1016/S0167-2738(00)00662-7,O+E
(La2O3)0.5(Mn2O3)0.5,107.5735789,1085.479575,100,0,,https://doi.org/10.1016/S0167-2738(00)00662-7,O+E
(La2O3)0.5(Mn2O3)0.5,99.82119626,940.2405541,100,0,,https://doi.org/10.1016/S0167-2738(00)00662-7,O+E
(La2O3)0.5(Mn2O3)0.5,89.14489622,859.176235,100,0,,https://doi.org/10.1016/S0167-2738(00)00662-7,O+E
(La2O3)0.5(Mn2O3)0.5,82.72059248,756.4669463,100,0,,https://doi.org/10.1016/S0167-2738(00)00662-7,O+E
(La2O3)0.5(Mn2O3)0.5,65.94779166,670.2703003,100,0,,https://doi.org/10.1016/S0167-2738(00)00662-7,O+E
(La2O3)0.5(Mn2O3)0.5,54.61977594,586.5650571,100,0,,https://doi.org/10.1016/S0167-2738(00)00662-7,O+E
(La2O3)0.5(Mn2O3)0.5,32.17195756,480.8082347,100,0,,https://doi.org/10.1016/S0167-2738(00)00662-7,O+E
(La2O3)0.5(Mn2O3)0.5,16.29583219,366.5392685,100,0,,https://doi.org/10.1016/S0167-2738(00)00662-7,O+E
(La2O3)0.5(Mn2O3)0.5,3.724801473,251.5311665,100,0,,https://doi.org/10.1016/S0167-2738(00)00662-7,O+E
(La2O3)0.5(Mn2O3)0.5,1.505256185,163.5304069,100,0,,https://doi.org/10.1016/S0167-2738(00)00662-7,O+E
(La2O3)0.5(Mn2O3)0.5,0.295546671,108.731871,100,0,,https://doi.org/10.1016/S0167-2738(00)00662-7,O+E
(La2O3)0.5(Mn2O3)0.5,65.27822348,800,4.11835E-16,0,,https://doi.org/10.1016/S0167-2738(00)00662-7,O+E
(La2O3)0.5(Mn2O3)0.5,63.03189782,800,2.53973E-15,0,,https://doi.org/10.1016/S0167-2738(00)00662-7,O+E
(La2O3)0.5(Mn2O3)0.5,68.10217573,800,1.55929E-14,0,,https://doi.org/10.1016/S0167-2738(00)00662-7,O+E
(La2O3)0.5(Mn2O3)0.5,68.26262756,800,7.09218E-14,0,,https://doi.org/10.1016/S0167-2738(00)00662-7,O+E
(La2O3)0.5(Mn2O3)0.5,66.00025672,800,3.75889E-13,0,,https://doi.org/10.1016/S0167-2738(00)00662-7,O+E
(La2O3)0.5(Mn2O3)0.5,73.89448688,800,8.73782E-11,0,,https://doi.org/10.1016/S0167-2738(00)00662-7,O+E
(La2O3)0.5(Mn2O3)0.5,80.53719273,800,0.001501402,0,,https://doi.org/10.1016/S0167-2738(00)00662-7,O+E
(La2O3)0.5(Mn2O3)0.5,78.53154483,800,0.08981329,0,,https://doi.org/10.1016/S0167-2738(00)00662-7,O+E
(La2O3)0.5(Mn2O3)0.5,78.7561774,800,0.748745327,0,,https://doi.org/10.1016/S0167-2738(00)00662-7,O+E
(La2O3)0.5(Mn2O3)0.5,81.46781336,800,9.818419621,0,,https://doi.org/10.1016/S0167-2738(00)00662-7,O+E
(La2O3)0.5(Mn2O3)0.5,79.25357808,800,81.9741485,0,,https://doi.org/10.1016/S0167-2738(00)00662-7,O+E
(La2O3)0.5(Mn2O3)0.5,87.52373645,1183.770007,20,0,,https://doi.org/10.1111/j.1151-2916.1993.tb03645.x,O+E
(La2O3)0.5(Mn2O3)0.5,80.06377158,1091.884229,20,0,,https://doi.org/10.1111/j.1151-2916.1993.tb03645.x,O+E
(La2O3)0.5(Mn2O3)0.5,76.86442502,991.9006212,20,0,,https://doi.org/10.1111/j.1151-2916.1993.tb03645.x,O+E
(La2O3)0.5(Mn2O3)0.5,71.58223075,889.7336562,20,0,,https://doi.org/10.1111/j.1151-2916.1993.tb03645.x,O+E
(La2O3)0.5(Mn2O3)0.5,67.80508012,776.5800959,20,0,,https://doi.org/10.1111/j.1151-2916.1993.tb03645.x,O+E
(La2O3)0.5(Mn2O3)0.5,54.35100116,689.1175649,20,0,,https://doi.org/10.1111/j.1151-2916.1993.tb03645.x,O+E
(La2O3)0.5(Mn2O3)0.5,43.06578965,584.1873121,20,0,,https://doi.org/10.1111/j.1151-2916.1993.tb03645.x,O+E
(La2O3)0.5(Mn2O3)0.5,30.83917302,479.7298644,20,0,,https://doi.org/10.1111/j.1151-2916.1993.tb03645.x,O+E
(La2O3)0.5(Mn2O3)0.5,5.48017577,352.7636318,20,0,,https://doi.org/10.1111/j.1151-2916.1993.tb03645.x,O+E
(La2O3)0.5(Mn2O3)0.5,2.08412873,267.0436083,20,0,,https://doi.org/10.1111/j.1151-2916.1993.tb03645.x,O+E
(La2O3)0.5(Mn2O3)0.5,0.599624094,160.244916,20,0,,https://doi.org/10.1111/j.1151-2916.1993.tb03645.x,O+E
(La2O3)0.45(V2O3)0.5,3.30E+00,25,21,0,,https://doi.org/10.1016/S0167-2738(01)00870-0,E
(La2O3)0.45(V2O3)0.5,2.90E+00,800,0,0,,https://doi.org/10.1016/S0167-2738(01)00870-0,E
(La2O3)0.45(V2O3)0.5,0.895364766,800,1.53501E-12,0,,https://doi.org/10.1016/S0167-2738(01)00870-0,E
(La2O3)0.45(V2O3)0.5,0.942041423,800,5.88302E-13,0,,https://doi.org/10.1016/S0167-2738(01)00870-0,E
(La2O3)0.45(V2O3)0.5,1.125459833,800,9.85167E-14,0,,https://doi.org/10.1016/S0167-2738(01)00870-0,E
(La2O3)0.45(V2O3)0.5,1.817858185,800,3.04074E-15,0,,https://doi.org/10.1016/S0167-2738(01)00870-0,E
(La2O3)0.45(V2O3)0.5,3.174168665,800,6.58734E-18,0,,https://doi.org/10.1016/S0167-2738(01)00870-0,E