Composition,Conductivity (S/cm),Temperature (degC),PO2 (%),PH2O (%),Grainsize,Ref,Carrier Type
(BaO)1(CeO2)0.5(ZrO2)0.3(Nd2O3)0.1,0.000477232,303.0197143,20,1.9,,https://doi.org/10.1016/j.jpowsour.2017.09.021,H
(BaO)1(CeO2)0.5(ZrO2)0.3(Nd2O3)0.1,0.000114774,252.6409034,20,1.9,,https://doi.org/10.1016/j.jpowsour.2017.09.021,H
(BaO)1(CeO2)0.5(ZrO2)0.3(Nd2O3)0.1,3.01036E-05,202.578209,20,1.9,,https://doi.org/10.1016/j.jpowsour.2017.09.021,H
(BaO)1(CeO2)0.5(ZrO2)0.3(Dy2O3)0.1,0.092680246,900.2851986,20,1.9,3.7,https://doi.org/10.1016/j.electacta.2018.07.179,H+E
(BaO)1(CeO2)0.5(ZrO2)0.3(Dy2O3)0.1,0.07975263,851.567474,20,1.9,3.7,https://doi.org/10.1016/j.electacta.2018.07.179,H+E
(BaO)1(CeO2)0.5(ZrO2)0.3(Dy2O3)0.1,0.069355205,799.6072607,20,1.9,3.7,https://doi.org/10.1016/j.electacta.2018.07.179,H+E
(BaO)1(CeO2)0.5(ZrO2)0.3(Dy2O3)0.1,0.060305884,749.0125786,20,1.9,3.7,https://doi.org/10.1016/j.electacta.2018.07.179,H+E
(BaO)1(CeO2)0.5(ZrO2)0.3(Dy2O3)0.1,0.052997104,701.5127436,20,1.9,3.7,https://doi.org/10.1016/j.electacta.2018.07.179,H+E
(BaO)1(CeO2)0.5(ZrO2)0.3(Dy2O3)0.1,0.046067041,650.2954545,20,1.9,3.7,https://doi.org/10.1016/j.electacta.2018.07.179,H+E
(BaO)1(CeO2)0.5(ZrO2)0.3(Dy2O3)0.1,0.036766801,600.655914,20,1.9,3.7,https://doi.org/10.1016/j.electacta.2018.07.179,H+E
(BaO)1(CeO2)0.5(ZrO2)0.3(Dy2O3)0.1,0.026370492,550.8276299,20,1.9,3.7,https://doi.org/10.1016/j.electacta.2018.07.179,H+E
(BaO)1(CeO2)0.5(ZrO2)0.3(Dy2O3)0.1,0.018710258,499.8894174,20,1.9,3.7,https://doi.org/10.1016/j.electacta.2018.07.179,H+E
(BaO)1(CeO2)0.5(ZrO2)0.3(Dy2O3)0.1,0.040409314,900.2851986,0,1.9,3.7,https://doi.org/10.1016/j.electacta.2018.07.179,H
(BaO)1(CeO2)0.5(ZrO2)0.3(Dy2O3)0.1,0.036712572,851.567474,0,1.9,3.7,https://doi.org/10.1016/j.electacta.2018.07.179,H
(BaO)1(CeO2)0.5(ZrO2)0.3(Dy2O3)0.1,0.034072767,799.6072607,0,1.9,3.7,https://doi.org/10.1016/j.electacta.2018.07.179,H
(BaO)1(CeO2)0.5(ZrO2)0.3(Dy2O3)0.1,0.031961682,749.0125786,0,1.9,3.7,https://doi.org/10.1016/j.electacta.2018.07.179,H
(BaO)1(CeO2)0.5(ZrO2)0.3(Dy2O3)0.1,0.030302711,701.5127436,0,1.9,3.7,https://doi.org/10.1016/j.electacta.2018.07.179,H
(BaO)1(CeO2)0.5(ZrO2)0.3(Dy2O3)0.1,0.02903775,650.2954545,0,1.9,3.7,https://doi.org/10.1016/j.electacta.2018.07.179,H
(BaO)1(CeO2)0.5(ZrO2)0.3(Dy2O3)0.1,0.028123805,600.655914,0,1.9,3.7,https://doi.org/10.1016/j.electacta.2018.07.179,H
(BaO)1(CeO2)0.5(ZrO2)0.3(Dy2O3)0.1,0.025824804,550.8276299,0,1.9,3.7,https://doi.org/10.1016/j.electacta.2018.07.179,H
(BaO)1(CeO2)0.5(ZrO2)0.3(Dy2O3)0.1,0.022008609,499.8894174,0,1.9,3.7,https://doi.org/10.1016/j.electacta.2018.07.179,H
(BaO)1(CeO2)0.5(ZrO2)0.3(Y2O3)0.1,0.08748538,895.356998,20,1.9,2.25,https://doi.org/10.1016/j.electacta.2017.08.149,H+E
(BaO)1(CeO2)0.5(ZrO2)0.3(Y2O3)0.1,0.072121461,847.8054534,20,1.9,2.25,https://doi.org/10.1016/j.electacta.2017.08.149,H+E
(BaO)1(CeO2)0.5(ZrO2)0.3(Y2O3)0.1,0.060345538,797.9530378,20,1.9,2.25,https://doi.org/10.1016/j.electacta.2017.08.149,H+E
(BaO)1(CeO2)0.5(ZrO2)0.3(Y2O3)0.1,0.053583646,746.8533275,20,1.9,2.25,https://doi.org/10.1016/j.electacta.2017.08.149,H+E
(BaO)1(CeO2)0.5(ZrO2)0.3(Y2O3)0.1,0.044834559,698.8079896,20,1.9,2.25,https://doi.org/10.1016/j.electacta.2017.08.149,H+E
(BaO)1(CeO2)0.5(ZrO2)0.3(Y2O3)0.1,0.035349811,649.1806763,20,1.9,2.25,https://doi.org/10.1016/j.electacta.2017.08.149,H+E
(BaO)1(CeO2)0.5(ZrO2)0.3(Y2O3)0.1,0.0254948,599.1134685,20,1.9,2.25,https://doi.org/10.1016/j.electacta.2017.08.149,H+E
(BaO)1(CeO2)0.5(ZrO2)0.3(Y2O3)0.1,0.017585766,549.5008522,20,1.9,2.25,https://doi.org/10.1016/j.electacta.2017.08.149,H+E
(BaO)1(CeO2)0.5(ZrO2)0.3(Y2O3)0.1,0.012683111,501.0257488,20,1.9,2.25,https://doi.org/10.1016/j.electacta.2017.08.149,H+E
(BaO)1(CeO2)0.5(ZrO2)0.3(Y2O3)0.1,0.034744055,895.356998,0,1.9,2.25,https://doi.org/10.1016/j.electacta.2017.08.149,H
(BaO)1(CeO2)0.5(ZrO2)0.3(Y2O3)0.1,0.031852583,847.8054534,0,1.9,2.25,https://doi.org/10.1016/j.electacta.2017.08.149,H
(BaO)1(CeO2)0.5(ZrO2)0.3(Y2O3)0.1,0.029627712,797.9530378,0,1.9,2.25,https://doi.org/10.1016/j.electacta.2017.08.149,H
(BaO)1(CeO2)0.5(ZrO2)0.3(Y2O3)0.1,0.027960239,746.8533275,0,1.9,2.25,https://doi.org/10.1016/j.electacta.2017.08.149,H
(BaO)1(CeO2)0.5(ZrO2)0.3(Y2O3)0.1,0.026386613,698.8079896,0,1.9,2.25,https://doi.org/10.1016/j.electacta.2017.08.149,H
(BaO)1(CeO2)0.5(ZrO2)0.3(Y2O3)0.1,0.024901552,649.1806763,0,1.9,2.25,https://doi.org/10.1016/j.electacta.2017.08.149,H
(BaO)1(CeO2)0.5(ZrO2)0.3(Y2O3)0.1,0.022829193,599.1134685,0,1.9,2.25,https://doi.org/10.1016/j.electacta.2017.08.149,H
(BaO)1(CeO2)0.5(ZrO2)0.3(Y2O3)0.1,0.019187521,549.5008522,0,1.9,2.25,https://doi.org/10.1016/j.electacta.2017.08.149,H
(BaO)1(CeO2)0.5(ZrO2)0.3(Y2O3)0.1,0.013167304,501.0257488,0,1.9,2.25,https://doi.org/10.1016/j.electacta.2017.08.149,H
(BaO)1(CeO2)0.5(ZrO2)0.3(Y2O3)0.1,0.014300326,752.3238782,0,1.9,5,https://doi.org/10.1016/j.ssi.2008.04.002,H
(BaO)1(CeO2)0.5(ZrO2)0.3(Y2O3)0.1,0.011366221,702.7728693,0,1.9,5,https://doi.org/10.1016/j.ssi.2008.04.002,H
(BaO)1(CeO2)0.5(ZrO2)0.3(Y2O3)0.1,0.009642524,651.5494804,0,1.9,5,https://doi.org/10.1016/j.ssi.2008.04.002,H
(BaO)1(CeO2)0.5(ZrO2)0.3(Y2O3)0.1,0.007916429,600.9611431,0,1.9,5,https://doi.org/10.1016/j.ssi.2008.04.002,H
(BaO)1(CeO2)0.5(ZrO2)0.3(Y2O3)0.1,0.004843319,550.5950074,0,1.9,5,https://doi.org/10.1016/j.ssi.2008.04.002,H
(BaO)1(CeO2)0.5(ZrO2)0.3(Y2O3)0.1,0.003604013,500.4982144,0,1.9,5,https://doi.org/10.1016/j.ssi.2008.04.002,H
(BaO)1(CeO2)0.5(ZrO2)0.3(Y2O3)0.1,0.002352889,450.751474,0,1.9,5,https://doi.org/10.1016/j.ssi.2008.04.002,H
(BaO)1(CeO2)0.5(ZrO2)0.3(Y2O3)0.1,0.001438486,399.6883724,0,1.9,5,https://doi.org/10.1016/j.ssi.2008.04.002,H
(BaO)1(CeO2)0.5(ZrO2)0.3(Y2O3)0.1,0.000722748,350.2051596,0,1.9,5,https://doi.org/10.1016/j.ssi.2008.04.002,H
(BaO)1(CeO2)0.7(ZrO2)0.2(NbO2)0.1,0.000372759,700,20,0,,https://doi.org/10.1021/ic201008v,H
(BaO)1(CeO2)0.7(ZrO2)0.2(NbO2)0.1,7.19686E-05,600,20,0,,https://doi.org/10.1021/ic201008v,H
(BaO)1(CeO2)0.7(ZrO2)0.2(NbO2)0.1,8.68511E-06,500,20,0,,https://doi.org/10.1021/ic201008v,H
(BaO)1(CeO2)0.7(ZrO2)0.2(NbO2)0.1,8.29E-07,400,20,0,,https://doi.org/10.1021/ic201008v,H
(BaO)1(CeO2)0.7(ZrO2)0.2(NbO2)0.1,0.005960475,700,0,1.9,,https://doi.org/10.1021/ic201008v,H+E
(BaO)1(CeO2)0.7(ZrO2)0.2(NbO2)0.1,0.000752323,600,0,1.9,,https://doi.org/10.1021/ic201008v,H+E
(BaO)1(CeO2)0.7(ZrO2)0.2(NbO2)0.1,0.000116793,500,0,1.9,,https://doi.org/10.1021/ic201008v,H+E
(BaO)1(CeO2)0.7(ZrO2)0.2(NbO2)0.1,7.92276E-06,400,0,1.9,,https://doi.org/10.1021/ic201008v,H+E
(BaO)1(CeO2)0.6(ZrO2)0.2(Dy2O3)0.1,0.098801823,900.2851986,20,1.9,8.3,https://doi.org/10.1016/j.electacta.2018.07.179,H+E
(BaO)1(CeO2)0.6(ZrO2)0.2(Dy2O3)0.1,0.087783255,851.567474,20,1.9,8.3,https://doi.org/10.1016/j.electacta.2018.07.179,H+E
(BaO)1(CeO2)0.6(ZrO2)0.2(Dy2O3)0.1,0.07633574,799.6072607,20,1.9,8.3,https://doi.org/10.1016/j.electacta.2018.07.179,H+E
(BaO)1(CeO2)0.6(ZrO2)0.2(Dy2O3)0.1,0.06708697,749.0125786,20,1.9,8.3,https://doi.org/10.1016/j.electacta.2018.07.179,H+E
(BaO)1(CeO2)0.6(ZrO2)0.2(Dy2O3)0.1,0.059588199,701.5127436,20,1.9,8.3,https://doi.org/10.1016/j.electacta.2018.07.179,H+E
(BaO)1(CeO2)0.6(ZrO2)0.2(Dy2O3)0.1,0.054634175,650.2954545,20,1.9,8.3,https://doi.org/10.1016/j.electacta.2018.07.179,H+E
(BaO)1(CeO2)0.6(ZrO2)0.2(Dy2O3)0.1,0.047995065,600.655914,20,1.9,8.3,https://doi.org/10.1016/j.electacta.2018.07.179,H+E
(BaO)1(CeO2)0.6(ZrO2)0.2(Dy2O3)0.1,0.040827318,550.8276299,20,1.9,8.3,https://doi.org/10.1016/j.electacta.2018.07.179,H+E
(BaO)1(CeO2)0.6(ZrO2)0.2(Dy2O3)0.1,0.032568871,499.8894174,20,1.9,8.3,https://doi.org/10.1016/j.electacta.2018.07.179,H+E
(BaO)1(CeO2)0.6(ZrO2)0.2(Dy2O3)0.1,0.068859357,900.2851986,0,1.9,8.3,https://doi.org/10.1016/j.electacta.2018.07.179,H
(BaO)1(CeO2)0.6(ZrO2)0.2(Dy2O3)0.1,0.0632304,851.567474,0,1.9,8.3,https://doi.org/10.1016/j.electacta.2018.07.179,H
(BaO)1(CeO2)0.6(ZrO2)0.2(Dy2O3)0.1,0.059948425,799.6072607,0,1.9,8.3,https://doi.org/10.1016/j.electacta.2018.07.179,H
(BaO)1(CeO2)0.6(ZrO2)0.2(Dy2O3)0.1,0.056234133,749.0125786,0,1.9,8.3,https://doi.org/10.1016/j.electacta.2018.07.179,H
(BaO)1(CeO2)0.6(ZrO2)0.2(Dy2O3)0.1,0.053315299,701.5127436,0,1.9,8.3,https://doi.org/10.1016/j.electacta.2018.07.179,H
(BaO)1(CeO2)0.6(ZrO2)0.2(Dy2O3)0.1,0.050547968,650.2954545,0,1.9,8.3,https://doi.org/10.1016/j.electacta.2018.07.179,H
(BaO)1(CeO2)0.6(ZrO2)0.2(Dy2O3)0.1,0.046415888,600.655914,0,1.9,8.3,https://doi.org/10.1016/j.electacta.2018.07.179,H
(BaO)1(CeO2)0.6(ZrO2)0.2(Dy2O3)0.1,0.042621588,550.8276299,0,1.9,8.3,https://doi.org/10.1016/j.electacta.2018.07.179,H
(BaO)1(CeO2)0.6(ZrO2)0.2(Dy2O3)0.1,0.035938137,499.8894174,0,1.9,8.3,https://doi.org/10.1016/j.electacta.2018.07.179,H
(BaO)1(CeO2)0.6(ZrO2)0.2(Y2O3)0.1,0.000108234,412.7249301,0,1.9,,https://doi.org/10.1016/j.ijhydene.2011.04.106,H
(BaO)1(CeO2)0.6(ZrO2)0.2(Y2O3)0.1,0.000304581,431.1818106,0,1.9,,https://doi.org/10.1016/j.ijhydene.2011.04.106,H
(BaO)1(CeO2)0.6(ZrO2)0.2(Y2O3)0.1,0.00071508,452.9416664,0,1.9,,https://doi.org/10.1016/j.ijhydene.2011.04.106,H
(BaO)1(CeO2)0.6(ZrO2)0.2(Y2O3)0.1,0.001572094,473.4708675,0,1.9,,https://doi.org/10.1016/j.ijhydene.2011.04.106,H
(BaO)1(CeO2)0.6(ZrO2)0.2(Y2O3)0.1,0.004802747,493.1574229,0,1.9,,https://doi.org/10.1016/j.ijhydene.2011.04.106,H
(BaO)1(CeO2)0.6(ZrO2)0.2(Y2O3)0.1,0.00811655,512.4677272,0,1.9,,https://doi.org/10.1016/j.ijhydene.2011.04.106,H
(BaO)1(CeO2)0.6(ZrO2)0.2(Y2O3)0.1,0.013717279,531.3665068,0,1.9,,https://doi.org/10.1016/j.ijhydene.2011.04.106,H
(BaO)1(CeO2)0.6(ZrO2)0.2(Y2O3)0.1,0.023953928,552.32095,0,1.9,,https://doi.org/10.1016/j.ijhydene.2011.04.106,H
(BaO)1(CeO2)0.6(ZrO2)0.2(Y2O3)0.1,0.036076872,572.4611624,0,1.9,,https://doi.org/10.1016/j.ijhydene.2011.04.106,H
(BaO)1(CeO2)0.6(ZrO2)0.2(Y2O3)0.1,0.046154131,576.9732362,0,1.9,,https://doi.org/10.1016/j.ijhydene.2011.04.106,H
(BaO)1(CeO2)0.6(Y2O3)0.15(SnO2)0.1,0.000328752,500,0,3,,https://doi.org/10.1016/j.jallcom.2008.12.120,H
(BaO)1(CeO2)0.6(Y2O3)0.15(SnO2)0.1,0.000937444,550,0,3,,https://doi.org/10.1016/j.jallcom.2008.12.120,H
(BaO)1(CeO2)0.6(Y2O3)0.15(SnO2)0.1,0.001424397,600,0,3,,https://doi.org/10.1016/j.jallcom.2008.12.120,H
(BaO)1(CeO2)0.6(Y2O3)0.15(SnO2)0.1,0.001627196,650,0,3,,https://doi.org/10.1016/j.jallcom.2008.12.120,H
(BaO)1(CeO2)0.6(Y2O3)0.15(SnO2)0.1,0.002114247,700,0,3,,https://doi.org/10.1016/j.jallcom.2008.12.120,H
(BaO)1(CeO2)0.6(Y2O3)0.15(SnO2)0.1,0.002317242,800,0,3,,https://doi.org/10.1016/j.jallcom.2008.12.120,H
(BaO)1(CeO2)0.65(Y2O3)0.125(SnO2)0.1,0.000482934,500,0,3,,https://doi.org/10.1016/j.jallcom.2008.12.120,H
(BaO)1(CeO2)0.65(Y2O3)0.125(SnO2)0.1,0.001172883,550,0,3,,https://doi.org/10.1016/j.jallcom.2008.12.120,H
(BaO)1(CeO2)0.65(Y2O3)0.125(SnO2)0.1,0.001903312,600,0,3,,https://doi.org/10.1016/j.jallcom.2008.12.120,H
(BaO)1(CeO2)0.65(Y2O3)0.125(SnO2)0.1,0.003161176,650,0,3,,https://doi.org/10.1016/j.jallcom.2008.12.120,H
(BaO)1(CeO2)0.65(Y2O3)0.125(SnO2)0.1,0.004540779,700,0,3,,https://doi.org/10.1016/j.jallcom.2008.12.120,H
(BaO)1(CeO2)0.65(Y2O3)0.125(SnO2)0.1,0.005839321,800,0,3,,https://doi.org/10.1016/j.jallcom.2008.12.120,H
(BaO)1(CeO2)0.8(ZrO2)0.1(NbO2)0.1,0.001073031,700,20,0,,https://doi.org/10.1021/ic201008v,H
(BaO)1(CeO2)0.8(ZrO2)0.1(NbO2)0.1,0.00026204,600,20,0,,https://doi.org/10.1021/ic201008v,H
(BaO)1(CeO2)0.8(ZrO2)0.1(NbO2)0.1,4.49843E-05,500,20,0,,https://doi.org/10.1021/ic201008v,H
(BaO)1(CeO2)0.8(ZrO2)0.1(NbO2)0.1,4.29193E-06,400,20,0,,https://doi.org/10.1021/ic201008v,H
(BaO)1(CeO2)0.8(ZrO2)0.1(NbO2)0.1,0.009016878,700,0,1.9,,https://doi.org/10.1021/ic201008v,H+E
(BaO)1(CeO2)0.8(ZrO2)0.1(NbO2)0.1,0.002348478,600,0,1.9,,https://doi.org/10.1021/ic201008v,H+E
(BaO)1(CeO2)0.8(ZrO2)0.1(NbO2)0.1,0.000551535,500,0,1.9,,https://doi.org/10.1021/ic201008v,H+E
(BaO)1(CeO2)0.8(ZrO2)0.1(NbO2)0.1,6.27701E-05,400,0,1.9,,https://doi.org/10.1021/ic201008v,H+E
(BaO)1(CeO2)0.7(Y2O3)0.1(SnO2)0.1,0.003477578,500,0,3,5.50,https://doi.org/10.1016/j.jallcom.2008.12.120,H
(BaO)1(CeO2)0.7(Y2O3)0.1(SnO2)0.1,0.005790802,550,0,3,5.50,https://doi.org/10.1016/j.jallcom.2008.12.120,H
(BaO)1(CeO2)0.7(Y2O3)0.1(SnO2)0.1,0.007616778,600,0,3,5.50,https://doi.org/10.1016/j.jallcom.2008.12.120,H
(BaO)1(CeO2)0.7(Y2O3)0.1(SnO2)0.1,0.009037058,650,0,3,5.50,https://doi.org/10.1016/j.jallcom.2008.12.120,H
(BaO)1(CeO2)0.7(Y2O3)0.1(SnO2)0.1,0.010376277,700,0,3,5.50,https://doi.org/10.1016/j.jallcom.2008.12.120,H
(BaO)1(CeO2)0.7(Y2O3)0.1(SnO2)0.1,0.011999356,800,0,3,5.50,https://doi.org/10.1016/j.jallcom.2008.12.120,H
(BaO)1(CeO2)0.7(TiO2)0.1(Y2O3)0.1,0.003193756,500,0,3,,https://doi.org/10.1016/j.jallcom.2009.01.011,H
(BaO)1(CeO2)0.7(TiO2)0.1(Y2O3)0.1,0.004008547,550.2118644,0,3,,https://doi.org/10.1016/j.jallcom.2009.01.011,H
(BaO)1(CeO2)0.7(TiO2)0.1(Y2O3)0.1,0.005267855,599.7881356,0,3,,https://doi.org/10.1016/j.jallcom.2009.01.011,H
(BaO)1(CeO2)0.7(TiO2)0.1(Y2O3)0.1,0.006082573,650.6355932,0,3,,https://doi.org/10.1016/j.jallcom.2009.01.011,H
(BaO)1(CeO2)0.7(TiO2)0.1(Y2O3)0.1,0.007068376,700.2118644,0,3,,https://doi.org/10.1016/j.jallcom.2009.01.011,H
(BaO)1(CeO2)0.7(TiO2)0.1(Y2O3)0.1,0.008088367,749.7881356,0,3,,https://doi.org/10.1016/j.jallcom.2009.01.011,H
(BaO)1(CeO2)0.7(TiO2)0.1(Y2O3)0.1,0.00917659,800.6355932,0,3,,https://doi.org/10.1016/j.jallcom.2009.01.011,H
(BaO)1(ZrO2)0.7(SnO2)0.1(Y2O3)0.1,0.001652654,598.4511041,0,3,1,https://doi.org/10.1002/aenm.201201062,H
(BaO)1(ZrO2)0.7(SnO2)0.1(Y2O3)0.1,0.001182299,548.5613383,0,3,1,https://doi.org/10.1002/aenm.201201062,H
(BaO)1(ZrO2)0.7(SnO2)0.1(Y2O3)0.1,0.000881971,500.2680196,0,3,1,https://doi.org/10.1002/aenm.201201062,H
(BaO)1(ZrO2)0.7(SnO2)0.1(Y2O3)0.1,0.000630957,450.6411264,0,3,1,https://doi.org/10.1002/aenm.201201062,H
(BaO)1(ZrO2)0.7(SnO2)0.1(Y2O3)0.1,0.000432876,399.7549467,0,3,1,https://doi.org/10.1002/aenm.201201062,H
(BaO)1(ZrO2)0.7(SnO2)0.1(Y2O3)0.1,0.000261928,350.5891648,0,3,1,https://doi.org/10.1002/aenm.201201062,H
(BaO)1(ZrO2)0.7(SnO2)0.1(Y2O3)0.1,0.000179699,300.7279335,0,3,1,https://doi.org/10.1002/aenm.201201062,H
(BaO)1(ZrO2)0.7(SnO2)0.1(Y2O3)0.1,0.000228443,349.9946524,0,0,1,https://doi.org/10.1002/aenm.201201062,H
(BaO)1(ZrO2)0.7(SnO2)0.1(Y2O3)0.1,0.000157933,298.6388616,0,0,1,https://doi.org/10.1002/aenm.201201062,H
(BaO)1(ZrO2)0.7(SnO2)0.1(Y2O3)0.1,0.000115098,276.0103676,0,0,1,https://doi.org/10.1002/aenm.201201062,H
(BaO)1(ZrO2)0.7(SnO2)0.1(Y2O3)0.1,7.95726E-05,250.8309353,0,0,1,https://doi.org/10.1002/aenm.201201062,H
(BaO)1(ZrO2)0.7(SnO2)0.1(Y2O3)0.1,5.79908E-05,225.289136,0,0,1,https://doi.org/10.1002/aenm.201201062,H
(BaO)1(ZrO2)0.7(SnO2)0.1(Y2O3)0.1,3.07999E-05,199.8084416,0,0,1,https://doi.org/10.1002/aenm.201201062,H
(BaO)1(ZrO2)0.7(SnO2)0.1(Y2O3)0.1,1.47211E-05,175.7673344,0,0,1,https://doi.org/10.1002/aenm.201201062,H
(BaO)1(ZrO2)0.7(SnO2)0.1(Y2O3)0.1,7.81861E-06,150.3284884,0,0,1,https://doi.org/10.1002/aenm.201201062,H
(BaO)1(ZrO2)0.7(SnO2)0.1(Y2O3)0.1,3.54502E-06,125.1544771,0,0,1,https://doi.org/10.1002/aenm.201201062,H
(BaO)1(ZrO2)0.7(SnO2)0.1(Y2O3)0.1,1.52478E-06,99.91933419,0,0,1,https://doi.org/10.1002/aenm.201201062,H
(BaO)1(ZrO2)0.7(SnO2)0.1(Y2O3)0.1,0.000348325,349.9946524,0,3,1,https://doi.org/10.1002/aenm.201201062,H
(BaO)1(ZrO2)0.7(SnO2)0.1(Y2O3)0.1,0.000253852,298.6388616,0,3,1,https://doi.org/10.1002/aenm.201201062,H
(BaO)1(ZrO2)0.7(SnO2)0.1(Y2O3)0.1,0.000195019,276.0103676,0,3,1,https://doi.org/10.1002/aenm.201201062,H
(BaO)1(ZrO2)0.7(SnO2)0.1(Y2O3)0.1,0.000149821,250.8309353,0,3,1,https://doi.org/10.1002/aenm.201201062,H
(BaO)1(ZrO2)0.7(SnO2)0.1(Y2O3)0.1,0.000115098,225.289136,0,3,1,https://doi.org/10.1002/aenm.201201062,H
(BaO)1(ZrO2)0.7(SnO2)0.1(Y2O3)0.1,6.79299E-05,199.8084416,0,3,1,https://doi.org/10.1002/aenm.201201062,H
(BaO)1(ZrO2)0.7(SnO2)0.1(Y2O3)0.1,4.22624E-05,175.7673344,0,3,1,https://doi.org/10.1002/aenm.201201062,H
(BaO)1(ZrO2)0.7(SnO2)0.1(Y2O3)0.1,2.24463E-05,150.3284884,0,3,1,https://doi.org/10.1002/aenm.201201062,H
(BaO)1(ZrO2)0.7(SnO2)0.1(Y2O3)0.1,9.65457E-06,125.1544771,0,3,1,https://doi.org/10.1002/aenm.201201062,H
(BaO)1(ZrO2)0.7(SnO2)0.1(Y2O3)0.1,4.1526E-06,99.91933419,0,3,1,https://doi.org/10.1002/aenm.201201062,H
(BaO)1(CeO2)0.7(In2O3)0.1(YbO)0.1,0.007295944,803.168008,20,0,,https://doi.org/10.1016/j.jpowsour.2011.04.036,H
(BaO)1(CeO2)0.7(In2O3)0.1(YbO)0.1,0.005285452,751.6119699,20,0,,https://doi.org/10.1016/j.jpowsour.2011.04.036,H
(BaO)1(CeO2)0.7(In2O3)0.1(YbO)0.1,0.00386815,700.8045083,20,0,,https://doi.org/10.1016/j.jpowsour.2011.04.036,H
(BaO)1(CeO2)0.7(In2O3)0.1(YbO)0.1,0.002715192,651.2159937,20,0,,https://doi.org/10.1016/j.jpowsour.2011.04.036,H
(BaO)1(CeO2)0.7(In2O3)0.1(YbO)0.1,0.00184698,601.300747,20,0,,https://doi.org/10.1016/j.jpowsour.2011.04.036,H
(BaO)1(CeO2)0.7(In2O3)0.1(YbO)0.1,0.001350631,550.8175218,20,0,,https://doi.org/10.1016/j.jpowsour.2011.04.036,H
(BaO)1(CeO2)0.7(In2O3)0.1(YbO)0.1,0.000886299,500.3087103,20,0,,https://doi.org/10.1016/j.jpowsour.2011.04.036,H
(BaO)1(CeO2)0.7(In2O3)0.1(YbO)0.1,0.008102027,801.269922,20,1.9,,https://doi.org/10.1016/j.jpowsour.2011.04.036,H
(BaO)1(CeO2)0.7(In2O3)0.1(YbO)0.1,0.005960855,751.6424388,20,1.9,,https://doi.org/10.1016/j.jpowsour.2011.04.036,H
(BaO)1(CeO2)0.7(In2O3)0.1(YbO)0.1,0.00462921,701.6367551,20,1.9,,https://doi.org/10.1016/j.jpowsour.2011.04.036,H
(BaO)1(CeO2)0.7(In2O3)0.1(YbO)0.1,0.003701853,650.5683728,20,1.9,,https://doi.org/10.1016/j.jpowsour.2011.04.036,H
(BaO)1(CeO2)0.7(In2O3)0.1(YbO)0.1,0.003094558,600.7591504,20,1.9,,https://doi.org/10.1016/j.jpowsour.2011.04.036,H
(BaO)1(CeO2)0.7(In2O3)0.1(YbO)0.1,0.002224315,550.3338368,20,1.9,,https://doi.org/10.1016/j.jpowsour.2011.04.036,H
(BaO)1(CeO2)0.7(In2O3)0.1(YbO)0.1,0.001361804,500.3706983,20,1.9,,https://doi.org/10.1016/j.jpowsour.2011.04.036,H
(BaO)1(CeO2)0.7(In2O3)0.1(YbO)0.1,0.004517784,801.1072671,0,1.9,,https://doi.org/10.1016/j.jpowsour.2011.04.036,H
(BaO)1(CeO2)0.7(In2O3)0.1(YbO)0.1,0.004053152,750.6705037,0,1.9,,https://doi.org/10.1016/j.jpowsour.2011.04.036,H
(BaO)1(CeO2)0.7(In2O3)0.1(YbO)0.1,0.003702659,701.5855595,0,1.9,,https://doi.org/10.1016/j.jpowsour.2011.04.036,H
(BaO)1(CeO2)0.7(In2O3)0.1(YbO)0.1,0.003394649,651.2620341,0,1.9,,https://doi.org/10.1016/j.jpowsour.2011.04.036,H
(BaO)1(CeO2)0.7(In2O3)0.1(YbO)0.1,0.002720444,600.7354116,0,1.9,,https://doi.org/10.1016/j.jpowsour.2011.04.036,H
(BaO)1(CeO2)0.7(In2O3)0.1(YbO)0.1,0.001719005,550.2916819,0,1.9,,https://doi.org/10.1016/j.jpowsour.2011.04.036,H
(BaO)1(CeO2)0.7(In2O3)0.1(YbO)0.1,0.001033875,500.8297188,0,1.9,,https://doi.org/10.1016/j.jpowsour.2011.04.036,H
(BaO)1(CeO2)0.7(NbO2)0.1(Y2O3)0.1,2.00E-03,600,0,3,,https://doi.org/10.1016/j.elecom.2016.08.019,H
(BaO)1(CeO2)0.7(NbO2)0.1(Y2O3)0.1,3.10E-03,650,0,3,,https://doi.org/10.1016/j.elecom.2016.08.019,H
(BaO)1(CeO2)0.7(NbO2)0.1(Y2O3)0.1,4.20E-03,700,0,3,,https://doi.org/10.1016/j.elecom.2016.08.019,H
(BaO)1(CeO2)0.7(ZrO2)0.1(Y2O3)0.1,2.00E-02,600,0,1.9,,https://doi.org/10.1039/B902343G,H
(BaO)1(CeO2)0.6(Sm2O3)0.1(In2O3)0.1,0.00558295,749.0717924,0,0,,https://doi.org/10.1149/2.083207jes,H
(BaO)1(CeO2)0.6(Sm2O3)0.1(In2O3)0.1,0.005405461,699.7012699,0,0,,https://doi.org/10.1149/2.083207jes,H
(BaO)1(CeO2)0.6(Sm2O3)0.1(In2O3)0.1,0.004962751,647.8226639,0,0,,https://doi.org/10.1149/2.083207jes,H
(BaO)1(CeO2)0.6(Sm2O3)0.1(In2O3)0.1,0.004335925,611.4525747,0,0,,https://doi.org/10.1149/2.083207jes,H
(BaO)1(CeO2)0.6(Sm2O3)0.1(In2O3)0.1,0.003290234,547.8149231,0,0,,https://doi.org/10.1149/2.083207jes,H
(BaO)1(CeO2)0.6(Sm2O3)0.1(In2O3)0.1,0.002461755,499.5791286,0,0,,https://doi.org/10.1149/2.083207jes,H
(BaO)1(CeO2)0.6(Sm2O3)0.1(In2O3)0.1,0.001729793,448.859168,0,0,,https://doi.org/10.1149/2.083207jes,H
(BaO)1(CeO2)0.6(Sm2O3)0.1(In2O3)0.1,0.001191545,399.1136853,0,0,,https://doi.org/10.1149/2.083207jes,H
(BaO)1(CeO2)0.6(Sm2O3)0.1(In2O3)0.1,0.000742957,349.3160246,0,0,,https://doi.org/10.1149/2.083207jes,H
(BaO)1(CeO2)0.6(Sm2O3)0.1(In2O3)0.1,0.000506234,299.2397765,0,0,,https://doi.org/10.1149/2.083207jes,H
(BaO)1(CeO2)0.75(Y2O3)0.075(SnO2)0.1,0.002130518,500,0,3,,https://doi.org/10.1016/j.jallcom.2008.12.120,H