Composition,Conductivity (S/cm),Temperature (degC),PO2 (%),PH2O (%),Grainsize,Ref,Carrier Type
(BaO)1(CeO2)0.9(Gd2O3)0.05,0.020003926,648.7171717,0,1.9,1.2,https://doi.org/10.1016/j.jpowsour.2010.11.120,H
(BaO)1(CeO2)0.9(Gd2O3)0.05,0.016856438,600.2057416,0,1.9,1.2,https://doi.org/10.1016/j.jpowsour.2010.11.120,H
(BaO)1(CeO2)0.9(Gd2O3)0.05,0.013726078,549.0720721,0,1.9,1.2,https://doi.org/10.1016/j.jpowsour.2010.11.120,H
(BaO)1(CeO2)0.9(Gd2O3)0.05,0.010085965,500.3050847,0,1.9,1.2,https://doi.org/10.1016/j.jpowsour.2010.11.120,H
(BaO)1(CeO2)0.9(Gd2O3)0.05,0.006920679,451.2063492,0,1.9,1.2,https://doi.org/10.1016/j.jpowsour.2010.11.120,H
(BaO)1(CeO2)0.9(Gd2O3)0.05,0.004434454,400.4317343,0,1.9,1.2,https://doi.org/10.1016/j.jpowsour.2010.11.120,H
(BaO)1(CeO2)0.9(Gd2O3)0.05,0.002564023,349.8668942,0,1.9,1.2,https://doi.org/10.1016/j.jpowsour.2010.11.120,H
(BaO)1(CeO2)0.9(Gd2O3)0.05,0.00116658,299.1003135,0,1.9,1.2,https://doi.org/10.1016/j.jpowsour.2010.11.120,H
(BaO)1(CeO2)0.9(Gd2O3)0.05,0.000340094,249.9226361,0,1.9,1.2,https://doi.org/10.1016/j.jpowsour.2010.11.120,H
(BaO)1(CeO2)0.9(Gd2O3)0.05,0.0001137,199.7979275,0,1.9,1.2,https://doi.org/10.1016/j.jpowsour.2010.11.120,H
(BaO)1(CeO2)0.9(Gd2O3)0.05,2.05243E-05,149.4537037,0,1.9,1.2,https://doi.org/10.1016/j.jpowsour.2010.11.120,H
(BaO)1(CeO2)0.9(Y2O3)0.05,0.031340383,752.2808989,20,1.9,1.1,https://doi.org/10.1016/j.jpowsour.2010.11.120,O+H
(BaO)1(CeO2)0.9(Y2O3)0.05,0.021527512,702.9358289,20,1.9,1.1,https://doi.org/10.1016/j.jpowsour.2010.11.120,O+H
(BaO)1(CeO2)0.9(Y2O3)0.05,0.015303973,653.3959391,20,1.9,1.1,https://doi.org/10.1016/j.jpowsour.2010.11.120,O+H
(BaO)1(CeO2)0.9(Y2O3)0.05,0.011261242,600.2057416,20,1.9,1.1,https://doi.org/10.1016/j.jpowsour.2010.11.120,O+H
(BaO)1(CeO2)0.9(Y2O3)0.05,0.008286448,552.7918552,20,1.9,1.1,https://doi.org/10.1016/j.jpowsour.2010.11.120,O+H
(BaO)1(CeO2)0.9(Y2O3)0.05,0.005893624,503.5957447,20,1.9,1.1,https://doi.org/10.1016/j.jpowsour.2010.11.120,O+H
(BaO)1(CeO2)0.9(Y2O3)0.05,0.004193727,448.3438735,20,1.9,1.1,https://doi.org/10.1016/j.jpowsour.2010.11.120,O+H
(BaO)1(CeO2)0.9(Y2O3)0.05,0.002693142,397.9558824,20,1.9,1.1,https://doi.org/10.1016/j.jpowsour.2010.11.120,O+H
(BaO)1(CeO2)0.9(Y2O3)0.05,0.001408477,352,20,1.9,1.1,https://doi.org/10.1016/j.jpowsour.2010.11.120,O+H
(BaO)1(CeO2)0.9(Y2O3)0.05,0.000845329,300.8993711,20,1.9,1.1,https://doi.org/10.1016/j.jpowsour.2010.11.120,O+H
(BaO)1(CeO2)0.9(Y2O3)0.05,0.000303744,249.9226361,20,1.9,1.1,https://doi.org/10.1016/j.jpowsour.2010.11.120,O+H
(BaO)1(CeO2)0.9(Y2O3)0.05,7.24281E-05,198.5762274,20,1.9,1.1,https://doi.org/10.1016/j.jpowsour.2010.11.120,O+H
(BaO)1(CeO2)0.9(Y2O3)0.05,1.14611E-05,149.4537037,20,1.9,1.1,https://doi.org/10.1016/j.jpowsour.2010.11.120,O+H
(BaO)1(CeO2)0.9(Y2O3)0.05,0.016856438,752.2808989,0,1.9,1.1,https://doi.org/10.1016/j.jpowsour.2010.11.120,H
(BaO)1(CeO2)0.9(Y2O3)0.05,0.014204186,702.9358289,0,1.9,1.1,https://doi.org/10.1016/j.jpowsour.2010.11.120,H
(BaO)1(CeO2)0.9(Y2O3)0.05,0.012386163,653.3959391,0,1.9,1.1,https://doi.org/10.1016/j.jpowsour.2010.11.120,H
(BaO)1(CeO2)0.9(Y2O3)0.05,0.010085965,600.2057416,0,1.9,1.1,https://doi.org/10.1016/j.jpowsour.2010.11.120,H
(BaO)1(CeO2)0.9(Y2O3)0.05,0.00821293,552.7918552,0,1.9,1.1,https://doi.org/10.1016/j.jpowsour.2010.11.120,H
(BaO)1(CeO2)0.9(Y2O3)0.05,0.006245095,503.5957447,0,1.9,1.1,https://doi.org/10.1016/j.jpowsour.2010.11.120,H
(BaO)1(CeO2)0.9(Y2O3)0.05,0.004434454,448.3438735,0,1.9,1.1,https://doi.org/10.1016/j.jpowsour.2010.11.120,H
(BaO)1(CeO2)0.9(Y2O3)0.05,0.002841395,397.9558824,0,1.9,1.1,https://doi.org/10.1016/j.jpowsour.2010.11.120,H
(BaO)1(CeO2)0.9(Y2O3)0.05,0.00153417,352,0,1.9,1.1,https://doi.org/10.1016/j.jpowsour.2010.11.120,H
(BaO)1(CeO2)0.9(Y2O3)0.05,0.000773528,300.8993711,0,1.9,1.1,https://doi.org/10.1016/j.jpowsour.2010.11.120,H
(BaO)1(CeO2)0.9(Y2O3)0.05,0.000296564,249.9226361,0,1.9,1.1,https://doi.org/10.1016/j.jpowsour.2010.11.120,H
(BaO)1(CeO2)0.9(Y2O3)0.05,8.64576E-05,198.5762274,0,1.9,1.1,https://doi.org/10.1016/j.jpowsour.2010.11.120,H
(BaO)1(CeO2)0.9(Y2O3)0.05,1.72949E-05,149.4537037,0,1.9,1.1,https://doi.org/10.1016/j.jpowsour.2010.11.120,H
(BaO)1(CeO2)0.9(Tb2O3)0.05,1.99127E-05,746.5530726,20,1.9,2,https://doi.org/10.1016/j.jpowsour.2010.11.120,O+H
(BaO)1(CeO2)0.9(Tb2O3)0.05,8.18313E-06,702.9358289,20,1.9,2,https://doi.org/10.1016/j.jpowsour.2010.11.120,O+H
(BaO)1(CeO2)0.9(Tb2O3)0.05,3.72797E-06,648.7171717,20,1.9,2,https://doi.org/10.1016/j.jpowsour.2010.11.120,O+H
(BaO)1(CeO2)0.9(Tb2O3)0.05,1.8185E-06,604.4038462,20,1.9,2,https://doi.org/10.1016/j.jpowsour.2010.11.120,O+H
(BaO)1(CeO2)0.9(Tb2O3)0.05,1.05307E-06,552.7918552,20,1.9,2,https://doi.org/10.1016/j.jpowsour.2010.11.120,O+H
(BaO)1(CeO2)0.9(Tb2O3)0.05,0.009101392,752.2808989,0,1.9,2,https://doi.org/10.1016/j.jpowsour.2010.11.120,H
(BaO)1(CeO2)0.9(Tb2O3)0.05,0.009101392,702.9358289,0,1.9,2,https://doi.org/10.1016/j.jpowsour.2010.11.120,H
(BaO)1(CeO2)0.9(Tb2O3)0.05,0.007936486,653.3959391,0,1.9,2,https://doi.org/10.1016/j.jpowsour.2010.11.120,H
(BaO)1(CeO2)0.9(Tb2O3)0.05,0.006920679,600.2057416,0,1.9,2,https://doi.org/10.1016/j.jpowsour.2010.11.120,H
(BaO)1(CeO2)0.9(Tb2O3)0.05,0.005262469,552.7918552,0,1.9,2,https://doi.org/10.1016/j.jpowsour.2010.11.120,H
(BaO)1(CeO2)0.9(Tb2O3)0.05,0.003736721,503.5957447,0,1.9,2,https://doi.org/10.1016/j.jpowsour.2010.11.120,H
(BaO)1(CeO2)0.9(Tb2O3)0.05,0.00239432,448.3438735,0,1.9,2,https://doi.org/10.1016/j.jpowsour.2010.11.120,H
(BaO)1(CeO2)0.9(Tb2O3)0.05,0.001432629,397.9558824,0,1.9,2,https://doi.org/10.1016/j.jpowsour.2010.11.120,H
(BaO)1(CeO2)0.9(Tb2O3)0.05,0.000747491,352,0,1.9,2,https://doi.org/10.1016/j.jpowsour.2010.11.120,H
(BaO)1(CeO2)0.9(Tb2O3)0.05,0.000276936,300.8993711,0,1.9,2,https://doi.org/10.1016/j.jpowsour.2010.11.120,H
(BaO)1(CeO2)0.9(Tb2O3)0.05,9.25855E-05,249.9226361,0,1.9,2,https://doi.org/10.1016/j.jpowsour.2010.11.120,H
(BaO)1(CeO2)0.9(Tb2O3)0.05,1.98334E-05,198.5762274,0,1.9,2,https://doi.org/10.1016/j.jpowsour.2010.11.120,H
(BaO)1(CeO2)0.9(Tb2O3)0.05,3.23068E-06,149.4537037,0,1.9,2,https://doi.org/10.1016/j.jpowsour.2010.11.120,H
(BaO)1(CeO2)0.9(Nd2O3)0.05,0.089081953,1007.139646,20,1.9,,https://doi.org/10.1016/0167-2738(91)90189-I,O+H
(BaO)1(CeO2)0.9(Nd2O3)0.05,0.069051673,960.9214391,20,1.9,,https://doi.org/10.1016/0167-2738(91)90189-I,O+H
(BaO)1(CeO2)0.9(Nd2O3)0.05,0.055922852,912.8848421,20,1.9,,https://doi.org/10.1016/0167-2738(91)90189-I,O+H
(BaO)1(CeO2)0.9(Nd2O3)0.05,0.040698161,858.9312215,20,1.9,,https://doi.org/10.1016/0167-2738(91)90189-I,O+H
(BaO)1(CeO2)0.9(Nd2O3)0.05,0.030274402,807.5860806,20,1.9,,https://doi.org/10.1016/0167-2738(91)90189-I,O+H
(BaO)1(CeO2)0.9(Nd2O3)0.05,0.021112524,758.6855114,20,1.9,,https://doi.org/10.1016/0167-2738(91)90189-I,O+H
(BaO)1(CeO2)0.9(Nd2O3)0.05,0.013819054,705.2093794,20,1.9,,https://doi.org/10.1016/0167-2738(91)90189-I,O+H
(BaO)1(CeO2)0.9(Nd2O3)0.05,0.009245529,655.4632496,20,1.9,,https://doi.org/10.1016/0167-2738(91)90189-I,O+H
(BaO)1(CeO2)0.9(Nd2O3)0.05,0.005681604,603.4464102,20,1.9,,https://doi.org/10.1016/0167-2738(91)90189-I,O+H
(BaO)1(CeO2)0.9(Sm2O3)0.05,0.040356641,900.4059448,20,1.9,3,https://doi.org/10.1016/j.jpowsour.2008.01.036,O+H
(BaO)1(CeO2)0.9(Sm2O3)0.05,0.031562064,849.7108819,20,1.9,3,https://doi.org/10.1016/j.jpowsour.2008.01.036,O+H
(BaO)1(CeO2)0.9(Sm2O3)0.05,0.023109825,799.6246239,20,1.9,3,https://doi.org/10.1016/j.jpowsour.2008.01.036,O+H
(BaO)1(CeO2)0.9(Sm2O3)0.05,0.016925127,749.9269747,20,1.9,3,https://doi.org/10.1016/j.jpowsour.2008.01.036,O+H
(BaO)1(CeO2)0.9(Sm2O3)0.05,0.012398136,700.4983725,20,1.9,3,https://doi.org/10.1016/j.jpowsour.2008.01.036,O+H
(BaO)1(CeO2)0.9(Sm2O3)0.05,0.00923648,650.3009405,20,1.9,3,https://doi.org/10.1016/j.jpowsour.2008.01.036,O+H
(BaO)1(CeO2)0.9(Sm2O3)0.05,0.006998373,599.7724672,20,1.9,3,https://doi.org/10.1016/j.jpowsour.2008.01.036,O+H
(BaO)1(CeO2)0.9(Sm2O3)0.05,0.006743686,600,0,1.9,3,https://doi.org/10.1016/j.jpowsour.2008.01.036,H
(BaO)1(CeO2)0.9(Sm2O3)0.05,0.008320551,650,0,1.9,3,https://doi.org/10.1016/j.jpowsour.2008.01.036,H
(BaO)1(CeO2)0.9(Sm2O3)0.05,0.009571689,700,0,1.9,3,https://doi.org/10.1016/j.jpowsour.2008.01.036,H
(BaO)1(CeO2)0.9(Sm2O3)0.05,0.011010958,750,0,1.9,3,https://doi.org/10.1016/j.jpowsour.2008.01.036,H
(BaO)1(CeO2)0.9(Sm2O3)0.05,0.012666645,800,0,1.9,3,https://doi.org/10.1016/j.jpowsour.2008.01.036,H
(BaO)1(CeO2)0.9(Sm2O3)0.05,0.015628466,850,0,1.9,3,https://doi.org/10.1016/j.jpowsour.2008.01.036,H
(BaO)1(CeO2)0.9(Sm2O3)0.05,0.019282845,900,0,1.9,3,https://doi.org/10.1016/j.jpowsour.2008.01.036,H
(BaO)1(CeO2)0.9(Y2O3)0.05,0.015875534,750.2048237,0,1.9,1.5,https://doi.org/10.1016/j.ceramint.2019.01.134,H
(BaO)1(CeO2)0.9(Y2O3)0.05,0.013466628,700.0668983,0,1.9,1.5,https://doi.org/10.1016/j.ceramint.2019.01.134,H
(BaO)1(CeO2)0.9(Y2O3)0.05,0.011576058,650.4828496,0,1.9,1.5,https://doi.org/10.1016/j.ceramint.2019.01.134,H
(BaO)1(CeO2)0.9(Y2O3)0.05,0.009152798,599.954014,0,1.9,1.5,https://doi.org/10.1016/j.ceramint.2019.01.134,H
(BaO)1(CeO2)0.9(Y2O3)0.05,0.007170085,550.6505368,0,1.9,1.5,https://doi.org/10.1016/j.ceramint.2019.01.134,H
(BaO)1(CeO2)0.9(Nd2O3)0.05,0.046690741,991.8221344,0,0,,https://doi.org/10.1016/0167-2738(95)00051-7,H
(BaO)1(CeO2)0.9(Nd2O3)0.05,0.039810717,946.047619,0,0,,https://doi.org/10.1016/0167-2738(95)00051-7,H
(BaO)1(CeO2)0.9(Nd2O3)0.05,0.033348548,899.1611722,0,0,,https://doi.org/10.1016/0167-2738(95)00051-7,H
(BaO)1(CeO2)0.9(Nd2O3)0.05,0.026963063,853.7605634,0,0,,https://doi.org/10.1016/0167-2738(95)00051-7,H
(BaO)1(CeO2)0.9(Nd2O3)0.05,0.021417522,799.0268007,0,0,,https://doi.org/10.1016/0167-2738(95)00051-7,H
(BaO)1(CeO2)0.9(Nd2O3)0.05,0.017626003,751,0,0,,https://doi.org/10.1016/0167-2738(95)00051-7,H
(BaO)1(CeO2)0.9(Nd2O3)0.05,0.015028758,698.168437,0,0,,https://doi.org/10.1016/0167-2738(95)00051-7,H
(BaO)1(CeO2)0.9(Nd2O3)0.05,0.012814224,653.1939219,0,0,,https://doi.org/10.1016/0167-2738(95)00051-7,H
(BaO)1(CeO2)0.9(Nd2O3)0.05,0.010545737,597.7482993,0,0,,https://doi.org/10.1016/0167-2738(95)00051-7,H
(CaO)1(ZrO2)0.9(In2O3)0.05,0.001529732,1007,0,0,,https://doi.org/10.1016/0167-2738(95)00051-7,H
(CaO)1(ZrO2)0.9(In2O3)0.05,0.001236823,955.4069098,0,0,,https://doi.org/10.1016/0167-2738(95)00051-7,H
(CaO)1(ZrO2)0.9(In2O3)0.05,0.001,907.8118081,0,0,,https://doi.org/10.1016/0167-2738(95)00051-7,H
(CaO)1(ZrO2)0.9(In2O3)0.05,0.000822971,855.7477954,0,0,,https://doi.org/10.1016/0167-2738(95)00051-7,H
(CaO)1(ZrO2)0.9(In2O3)0.05,0.00061988,802.6302521,0,0,,https://doi.org/10.1016/0167-2738(95)00051-7,H
(CaO)1(ZrO2)0.9(In2O3)0.05,0.000492388,752.6410256,0,0,,https://doi.org/10.1016/0167-2738(95)00051-7,H
(CaO)1(ZrO2)0.9(In2O3)0.05,0.000351685,701.1248097,0,0,,https://doi.org/10.1016/0167-2738(95)00051-7,H
(CaO)1(ZrO2)0.9(In2O3)0.05,0.000260246,653.1939219,0,0,,https://doi.org/10.1016/0167-2738(95)00051-7,H
(CaO)1(ZrO2)0.9(In2O3)0.05,0.00017626,602.5129959,0,0,,https://doi.org/10.1016/0167-2738(95)00051-7,H
(BaO)1(CeO2)0.9(Nd2O3)0.05,0.127239769,900,2.97E-17,2.3,,https://doi.org/10.1016/j.ssi.2010.07.034,O+H
(BaO)1(CeO2)0.9(Nd2O3)0.05,0.125822031,900,1.89E-16,2.3,,https://doi.org/10.1016/j.ssi.2010.07.034,O+H
(BaO)1(CeO2)0.9(Nd2O3)0.05,0.12442009,900,3.45E-15,2.3,,https://doi.org/10.1016/j.ssi.2010.07.034,O+H
(BaO)1(CeO2)0.9(Nd2O3)0.05,0.125822031,900,6.30E-14,2.3,,https://doi.org/10.1016/j.ssi.2010.07.034,O+H
(BaO)1(CeO2)0.9(Nd2O3)0.05,0.13457171,900,6.50E-03,2.3,,https://doi.org/10.1016/j.ssi.2010.07.034,O+H
(BaO)1(CeO2)0.9(Nd2O3)0.05,0.131589553,900,1.43E-02,2.3,,https://doi.org/10.1016/j.ssi.2010.07.034,O+H
(BaO)1(CeO2)0.9(Nd2O3)0.05,0.153938742,900,9.12E-02,2.3,,https://doi.org/10.1016/j.ssi.2010.07.034,O+H
(BaO)1(CeO2)0.9(Nd2O3)0.05,0.178077181,900,9.83E-01,2.3,,https://doi.org/10.1016/j.ssi.2010.07.034,O+H
(BaO)1(CeO2)0.9(Nd2O3)0.05,0.217871043,900,8.13E+00,2.3,,https://doi.org/10.1016/j.ssi.2010.07.034,O+H
(BaO)1(CeO2)0.9(Nd2O3)0.05,0.285093841,900,8.76E+01,2.3,,https://doi.org/10.1016/j.ssi.2010.07.034,O+H
(BaO)1(CeO2)0.9(Nd2O3)0.05,0.082194328,800,1.32E-19,2.3,,https://doi.org/10.1016/j.ssi.2010.07.034,O+H
(BaO)1(CeO2)0.9(Nd2O3)0.05,0.082194328,800,1.62E-18,2.3,,https://doi.org/10.1016/j.ssi.2010.07.034,O+H
(BaO)1(CeO2)0.9(Nd2O3)0.05,0.079477337,800,2.28E-17,2.3,,https://doi.org/10.1016/j.ssi.2010.07.034,O+H
(BaO)1(CeO2)0.9(Nd2O3)0.05,0.082194328,800,5.42E-16,2.3,,https://doi.org/10.1016/j.ssi.2010.07.034,O+H
(BaO)1(CeO2)0.9(Nd2O3)0.05,0.079477337,800,6.30E-14,2.3,,https://doi.org/10.1016/j.ssi.2010.07.034,O+H
(BaO)1(CeO2)0.9(Nd2O3)0.05,0.085962011,800,6.50E-03,2.3,,https://doi.org/10.1016/j.ssi.2010.07.034,O+H
(BaO)1(CeO2)0.9(Nd2O3)0.05,0.09508285,800,1.43E-02,2.3,,https://doi.org/10.1016/j.ssi.2010.07.034,O+H
(BaO)1(CeO2)0.9(Nd2O3)0.05,0.101694923,800,1.04E-01,2.3,,https://doi.org/10.1016/j.ssi.2010.07.034,O+H
(BaO)1(CeO2)0.9(Nd2O3)0.05,0.112485072,800,8.61E-01,2.3,,https://doi.org/10.1016/j.ssi.2010.07.034,O+H
(BaO)1(CeO2)0.9(Nd2O3)0.05,0.131589553,800,1.06E+01,2.3,,https://doi.org/10.1016/j.ssi.2010.07.034,O+H
(BaO)1(CeO2)0.9(Nd2O3)0.05,0.15920125,800,1.00E+02,2.3,,https://doi.org/10.1016/j.ssi.2010.07.034,O+H
(BaO)1(CeO2)0.9(Nd2O3)0.05,0.05807514,700,4.50733E-22,2.3,,https://doi.org/10.1016/j.ssi.2010.07.034,O+H
(BaO)1(CeO2)0.9(Nd2O3)0.05,0.05872952,700,1.07298E-20,2.3,,https://doi.org/10.1016/j.ssi.2010.07.034,O+H
(BaO)1(CeO2)0.9(Nd2O3)0.05,0.056788174,700,2.23823E-19,2.3,,https://doi.org/10.1016/j.ssi.2010.07.034,O+H
(BaO)1(CeO2)0.9(Nd2O3)0.05,0.053694154,700,2.11372E-18,2.3,,https://doi.org/10.1016/j.ssi.2010.07.034,O+H
(BaO)1(CeO2)0.9(Nd2O3)0.05,0.052504273,700,7.91884E-18,2.3,,https://doi.org/10.1016/j.ssi.2010.07.034,O+H
(BaO)1(CeO2)0.9(Nd2O3)0.05,0.057428052,700,0.006495603,2.3,,https://doi.org/10.1016/j.ssi.2010.07.034,O+H
(BaO)1(CeO2)0.9(Nd2O3)0.05,0.05807514,700,0.014347881,2.3,,https://doi.org/10.1016/j.ssi.2010.07.034,O+H
(BaO)1(CeO2)0.9(Nd2O3)0.05,0.060060481,700,0.118732548,2.3,,https://doi.org/10.1016/j.ssi.2010.07.034,O+H
(BaO)1(CeO2)0.9(Nd2O3)0.05,0.061421606,700,0.982543567,2.3,,https://doi.org/10.1016/j.ssi.2010.07.034,O+H
(BaO)1(CeO2)0.9(Nd2O3)0.05,0.064960905,700,10.58904019,2.3,,https://doi.org/10.1016/j.ssi.2010.07.034,O+H
(BaO)1(CeO2)0.9(Nd2O3)0.05,0.071052851,700,87.62713718,2.3,,https://doi.org/10.1016/j.ssi.2010.07.034,O+H
(BaO)1(CeO2)0.9(Nd2O3)0.05,0.049090513,600,3.60085E-25,2.3,,https://doi.org/10.1016/j.ssi.2010.07.034,O+H
(BaO)1(CeO2)0.9(Nd2O3)0.05,0.047467792,600,8.57193E-24,2.3,,https://doi.org/10.1016/j.ssi.2010.07.034,O+H
(BaO)1(CeO2)0.9(Nd2O3)0.05,0.045898711,600,1.05425E-22,2.3,,https://doi.org/10.1016/j.ssi.2010.07.034,O+H
(BaO)1(CeO2)0.9(Nd2O3)0.05,0.042914436,600,2.50968E-21,2.3,,https://doi.org/10.1016/j.ssi.2010.07.034,O+H
(BaO)1(CeO2)0.9(Nd2O3)0.05,0.040576306,600,9.40224E-21,2.3,,https://doi.org/10.1016/j.ssi.2010.07.034,O+H
(BaO)1(CeO2)0.9(Nd2O3)0.05,0.042914436,600,0.007412776,2.3,,https://doi.org/10.1016/j.ssi.2010.07.034,O+H
(BaO)1(CeO2)0.9(Nd2O3)0.05,0.041963436,600,0.021324158,2.3,,https://doi.org/10.1016/j.ssi.2010.07.034,O+H
(BaO)1(CeO2)0.9(Nd2O3)0.05,0.040124194,600,0.104041933,2.3,,https://doi.org/10.1016/j.ssi.2010.07.034,O+H
(BaO)1(CeO2)0.9(Nd2O3)0.05,0.036275274,600,0.860974799,2.3,,https://doi.org/10.1016/j.ssi.2010.07.034,O+H
(BaO)1(CeO2)0.9(Nd2O3)0.05,0.032068801,600,8.130810573,2.3,,https://doi.org/10.1016/j.ssi.2010.07.034,O+H
(BaO)1(CeO2)0.9(Nd2O3)0.05,0.029983729,600,87.62713718,2.3,,https://doi.org/10.1016/j.ssi.2010.07.034,O+H
(BaO)1(CeO2)0.9(Nd2O3)0.05,0.02835011,500,5.89596E-29,2.3,,https://doi.org/10.1016/j.ssi.2010.07.034,O+H
(BaO)1(CeO2)0.9(Nd2O3)0.05,0.028034226,500,2.52075E-28,2.3,,https://doi.org/10.1016/j.ssi.2010.07.034,O+H
(BaO)1(CeO2)0.9(Nd2O3)0.05,0.027412977,500,1.60173E-27,2.3,,https://doi.org/10.1016/j.ssi.2010.07.034,O+H
(BaO)1(CeO2)0.9(Nd2O3)0.05,0.024783383,500,2.92779E-26,2.3,,https://doi.org/10.1016/j.ssi.2010.07.034,O+H
(BaO)1(CeO2)0.9(Nd2O3)0.05,0.0207158,500,5.35167E-25,2.3,,https://doi.org/10.1016/j.ssi.2010.07.034,O+H
(BaO)1(CeO2)0.9(Nd2O3)0.05,0.022156379,500,0.005691911,2.3,,https://doi.org/10.1016/j.ssi.2010.07.034,O+H
(BaO)1(CeO2)0.9(Nd2O3)0.05,0.021665386,500,0.016373787,2.3,,https://doi.org/10.1016/j.ssi.2010.07.034,O+H
(BaO)1(CeO2)0.9(Nd2O3)0.05,0.020484979,500,0.091168967,2.3,,https://doi.org/10.1016/j.ssi.2010.07.034,O+H
(BaO)1(CeO2)0.9(Nd2O3)0.05,0.018109545,500,0.982543567,2.3,,https://doi.org/10.1016/j.ssi.2010.07.034,O+H
(BaO)1(CeO2)0.9(Nd2O3)0.05,0.014968645,500,4.793893002,2.3,,https://doi.org/10.1016/j.ssi.2010.07.034,O+H
(BaO)1(CeO2)0.9(Nd2O3)0.05,0.01209832,500,15.73768059,2.3,,https://doi.org/10.1016/j.ssi.2010.07.034,O+H
(BaO)1(CeO2)0.9(Y2O3)0.05,0.132921583,900.9441661,100,2.3,,https://doi.org/10.1016/j.ssi.2010.07.034,O+H
(BaO)1(CeO2)0.9(Y2O3)0.05,0.075232327,801.0013098,100,2.3,,https://doi.org/10.1016/j.ssi.2010.07.034,O+H
(BaO)1(CeO2)0.9(Y2O3)0.05,0.042580767,702.0297265,100,2.3,,https://doi.org/10.1016/j.ssi.2010.07.034,O+H
(BaO)1(CeO2)0.9(Y2O3)0.05,0.022884981,600.734683,100,2.3,,https://doi.org/10.1016/j.ssi.2010.07.034,O+H
(BaO)1(CeO2)0.9(Y2O3)0.05,0.011090313,499.8557964,100,2.3,,https://doi.org/10.1016/j.ssi.2010.07.034,O+H
(BaO)1(CeO2)0.9(Y2O3)0.05,0.079227583,900.9441661,1,2.3,,https://doi.org/10.1016/j.ssi.2010.07.034,O+H
(BaO)1(CeO2)0.9(Y2O3)0.05,0.049731231,801.0013098,1,2.3,,https://doi.org/10.1016/j.ssi.2010.07.034,O+H
(BaO)1(CeO2)0.9(Y2O3)0.05,0.031216343,702.0297265,1,2.3,,https://doi.org/10.1016/j.ssi.2010.07.034,O+H
(BaO)1(CeO2)0.9(Y2O3)0.05,0.018606424,600.734683,1,2.3,,https://doi.org/10.1016/j.ssi.2010.07.034,O+H
(BaO)1(CeO2)0.9(Y2O3)0.05,0.009016878,499.8557964,1,2.3,,https://doi.org/10.1016/j.ssi.2010.07.034,O+H
(BaO)1(CeO2)0.9(Y2O3)0.05,0.061166954,900.9441661,0.01,2.3,,https://doi.org/10.1016/j.ssi.2010.07.034,O+H
(BaO)1(CeO2)0.9(Y2O3)0.05,0.042580767,801.0013098,0.01,2.3,,https://doi.org/10.1016/j.ssi.2010.07.034,O+H
(BaO)1(CeO2)0.9(Y2O3)0.05,0.02672799,702.0297265,0.01,2.3,,https://doi.org/10.1016/j.ssi.2010.07.034,O+H
(BaO)1(CeO2)0.9(Y2O3)0.05,0.016777185,600.734683,0.01,2.3,,https://doi.org/10.1016/j.ssi.2010.07.034,O+H
(BaO)1(CeO2)0.9(Y2O3)0.05,0.008562178,499.8557964,0.01,2.3,,https://doi.org/10.1016/j.ssi.2010.07.034,O+H
(BaO)1(CeO2)0.9(Gd2O3)0.05,0.056684276,900.7588652,20,1.9,,https://doi.org/10.1016/j.ijhydene.2014.09.019,O+H
(BaO)1(CeO2)0.9(Gd2O3)0.05,0.04741331,849.7951153,20,1.9,,https://doi.org/10.1016/j.ijhydene.2014.09.019,O+H
(BaO)1(CeO2)0.9(Gd2O3)0.05,0.039658652,800.9779364,20,1.9,,https://doi.org/10.1016/j.ijhydene.2014.09.019,O+H
(BaO)1(CeO2)0.9(Gd2O3)0.05,0.031522087,749.8677379,20,1.9,,https://doi.org/10.1016/j.ijhydene.2014.09.019,O+H
(BaO)1(CeO2)0.9(Gd2O3)0.05,0.025215179,701.1024132,20,1.9,,https://doi.org/10.1016/j.ijhydene.2014.09.019,O+H
(BaO)1(CeO2)0.9(Gd2O3)0.05,0.019787863,649.5195095,20,1.9,,https://doi.org/10.1016/j.ijhydene.2014.09.019,O+H
(BaO)1(CeO2)0.9(Gd2O3)0.05,0.016031943,599.4301529,20,1.9,,https://doi.org/10.1016/j.ijhydene.2014.09.019,O+H
(BaO)1(CeO2)0.9(Gd2O3)0.05,0.038413823,899.9270021,0,1.9,,https://doi.org/10.1016/j.ijhydene.2014.09.019,O+H
(BaO)1(CeO2)0.9(Gd2O3)0.05,0.034247276,849.7951153,0,1.9,,https://doi.org/10.1016/j.ijhydene.2014.09.019,O+H
(BaO)1(CeO2)0.9(Gd2O3)0.05,0.030338525,798.197411,0,1.9,,https://doi.org/10.1016/j.ijhydene.2014.09.019,O+H
(BaO)1(CeO2)0.9(Gd2O3)0.05,0.027220936,749.8677379,0,1.9,,https://doi.org/10.1016/j.ijhydene.2014.09.019,O+H
(BaO)1(CeO2)0.9(Gd2O3)0.05,0.024114123,699.3854289,0,1.9,,https://doi.org/10.1016/j.ijhydene.2014.09.019,O+H
(BaO)1(CeO2)0.9(Gd2O3)0.05,0.021636154,650.0340212,0,1.9,,https://doi.org/10.1016/j.ijhydene.2014.09.019,O+H
(BaO)1(CeO2)0.9(Gd2O3)0.05,0.019412821,599.8902954,0,1.9,,https://doi.org/10.1016/j.ijhydene.2014.09.019,O+H
(BaO)1(CeO2)0.9(Gd2O3)0.05,0.022009916,900,8.88073E-19,1.9,,https://doi.org/10.1016/j.ijhydene.2014.09.019,O+H
(BaO)1(CeO2)0.9(Gd2O3)0.05,0.023618867,900,9.45889E-18,1.9,,https://doi.org/10.1016/j.ijhydene.2014.09.019,O+H