Composition,Conductivity (S/cm),Temperature (degC),PO2 (%),PH2O (%),Grainsize,Ref,Carrier Type
(SrO)1(TiO2)0.9(Al2O3)0.05,0.00042942,800,1.54469E-09,0,,https://doi.org/10.1016/0013-7480(71)90121-5,O
(SrO)1(TiO2)0.9(Al2O3)0.05,0.000502655,800,4.94901E-14,0,,https://doi.org/10.1016/0013-7480(71)90121-5,O
(SrO)1(TiO2)0.9(Al2O3)0.05,0.000574529,800,1.73413E-15,0,,https://doi.org/10.1016/0013-7480(71)90121-5,O
(SrO)1(TiO2)0.9(Al2O3)0.05,0.000750049,800,4.02514E-17,0,,https://doi.org/10.1016/0013-7480(71)90121-5,O
(SrO)1(TiO2)0.9(Al2O3)0.05,0.000886336,800,9.28649E-19,0,,https://doi.org/10.1016/0013-7480(71)90121-5,O
(SrO)1(TiO2)0.9(Al2O3)0.05,0.001801632,800,2.54702E-20,0,,https://doi.org/10.1016/0013-7480(71)90121-5,O
(SrO)1(TiO2)0.9(Al2O3)0.05,0.002081048,800,8.38526E-21,0,,https://doi.org/10.1016/0013-7480(71)90121-5,O
(SrO)1(MoO2)0.9(Fe2O3)0.05,337.6119403,22.78481013,0,0,,https://doi.org/10.1016/j.jpowsour.2012.02.002,E
(SrO)1(MoO2)0.9(Fe2O3)0.05,306.2686567,53.16455696,0,0,,https://doi.org/10.1016/j.jpowsour.2012.02.002,E
(SrO)1(MoO2)0.9(Fe2O3)0.05,277.9104478,98.73417722,0,0,,https://doi.org/10.1016/j.jpowsour.2012.02.002,E
(SrO)1(MoO2)0.9(Fe2O3)0.05,260,148.1012658,0,0,,https://doi.org/10.1016/j.jpowsour.2012.02.002,E
(SrO)1(MoO2)0.9(Fe2O3)0.05,257.0149254,220.2531646,0,0,,https://doi.org/10.1016/j.jpowsour.2012.02.002,E
(SrO)1(MoO2)0.9(Fe2O3)0.05,245.0746269,281.0126582,0,0,,https://doi.org/10.1016/j.jpowsour.2012.02.002,E
(SrO)1(MoO2)0.9(Fe2O3)0.05,234.6268657,349.3670886,0,0,,https://doi.org/10.1016/j.jpowsour.2012.02.002,E
(SrO)1(MoO2)0.9(Fe2O3)0.05,231.641791,410.1265823,0,0,,https://doi.org/10.1016/j.jpowsour.2012.02.002,E
(SrO)1(MoO2)0.9(Fe2O3)0.05,221.1940299,467.0886076,0,0,,https://doi.org/10.1016/j.jpowsour.2012.02.002,E
(SrO)1(MoO2)0.9(Fe2O3)0.05,213.7313433,520.2531646,0,0,,https://doi.org/10.1016/j.jpowsour.2012.02.002,E
(SrO)1(MoO2)0.9(Fe2O3)0.05,215.2238806,569.6202532,0,0,,https://doi.org/10.1016/j.jpowsour.2012.02.002,E
(SrO)1(MoO2)0.9(Fe2O3)0.05,203.2835821,626.5822785,0,0,,https://doi.org/10.1016/j.jpowsour.2012.02.002,E
(SrO)1(MoO2)0.9(Fe2O3)0.05,191.3432836,698.7341772,0,0,,https://doi.org/10.1016/j.jpowsour.2012.02.002,E
(SrO)1(MoO2)0.9(Fe2O3)0.05,191.3432836,759.4936709,0,0,,https://doi.org/10.1016/j.jpowsour.2012.02.002,E
(SrO)1(MoO2)0.9(Fe2O3)0.05,182.3880597,808.8607595,0,0,,https://doi.org/10.1016/j.jpowsour.2012.02.002,E
(SrO)1(MoO2)0.9(Fe2O3)0.05,174.9253731,850.6329114,0,0,,https://doi.org/10.1016/j.jpowsour.2012.02.002,E
(BaO)1(ZrO2)0.9(Y2O3)0.05,0.005681926,906.1533368,0,1.9,,https://doi.org/10.1016/j.ssi.2008.02.047,H
(BaO)1(ZrO2)0.9(Y2O3)0.05,0.005361922,856.2402619,0,1.9,,https://doi.org/10.1016/j.ssi.2008.02.047,H
(BaO)1(ZrO2)0.9(Y2O3)0.05,0.005441971,808.2673116,0,1.9,,https://doi.org/10.1016/j.ssi.2008.02.047,H
(BaO)1(ZrO2)0.9(Y2O3)0.05,0.005513594,756.5770348,0,1.9,,https://doi.org/10.1016/j.ssi.2008.02.047,H
(BaO)1(ZrO2)0.9(Y2O3)0.05,0.005583726,707.8824167,0,1.9,,https://doi.org/10.1016/j.ssi.2008.02.047,H
(BaO)1(ZrO2)0.9(Y2O3)0.05,0.00550879,657.3677092,0,1.9,,https://doi.org/10.1016/j.ssi.2008.02.047,H
(BaO)1(ZrO2)0.9(Y2O3)0.05,0.005169165,607.636988,0,1.9,,https://doi.org/10.1016/j.ssi.2008.02.047,H
(BaO)1(ZrO2)0.9(Y2O3)0.05,0.004500154,558.0044515,0,1.9,,https://doi.org/10.1016/j.ssi.2008.02.047,H
(BaO)1(ZrO2)0.9(Y2O3)0.05,0.003547129,509.2880779,0,1.9,,https://doi.org/10.1016/j.ssi.2008.02.047,H
(BaO)1(ZrO2)0.9(Y2O3)0.05,0.00252704,458.261679,0,1.9,,https://doi.org/10.1016/j.ssi.2008.02.047,H
(BaO)1(ZrO2)0.9(Y2O3)0.05,0.001590013,409.3171834,0,1.9,,https://doi.org/10.1016/j.ssi.2008.02.047,H
(BaO)1(ZrO2)0.9(Ga2O3)0.05,0.000153352,907.4531439,0,1.9,,https://doi.org/10.1016/j.ssi.2008.02.047,H
(BaO)1(ZrO2)0.9(Ga2O3)0.05,0.000110641,857.5209998,0,1.9,,https://doi.org/10.1016/j.ssi.2008.02.047,H
(BaO)1(ZrO2)0.9(Ga2O3)0.05,7.97902E-05,809.544995,0,1.9,,https://doi.org/10.1016/j.ssi.2008.02.047,H
(BaO)1(ZrO2)0.9(In2O3)0.05,0.00174352,909.5795645,0,1.9,,https://doi.org/10.1016/j.ssi.2008.02.047,H
(BaO)1(ZrO2)0.9(In2O3)0.05,0.001517304,857.323407,0,1.9,,https://doi.org/10.1016/j.ssi.2008.02.047,H
(BaO)1(ZrO2)0.9(In2O3)0.05,0.001416627,807.5019896,0,1.9,,https://doi.org/10.1016/j.ssi.2008.02.047,H
(BaO)1(ZrO2)0.9(In2O3)0.05,0.001292191,758.2591294,0,1.9,,https://doi.org/10.1016/j.ssi.2008.02.047,H
(BaO)1(ZrO2)0.9(In2O3)0.05,0.001151634,708.3733667,0,1.9,,https://doi.org/10.1016/j.ssi.2008.02.047,H
(BaO)1(ZrO2)0.9(In2O3)0.05,0.001002746,660.121861,0,1.9,,https://doi.org/10.1016/j.ssi.2008.02.047,H
(BaO)1(ZrO2)0.9(In2O3)0.05,0.000833491,608.3982522,0,1.9,,https://doi.org/10.1016/j.ssi.2008.02.047,H
(BaO)1(ZrO2)0.9(In2O3)0.05,0.000661195,559.7435716,0,1.9,,https://doi.org/10.1016/j.ssi.2008.02.047,H
(BaO)1(ZrO2)0.9(In2O3)0.05,0.000500716,509.8786871,0,1.9,,https://doi.org/10.1016/j.ssi.2008.02.047,H
(BaO)1(ZrO2)0.9(In2O3)0.05,0.000370559,460.125649,0,1.9,,https://doi.org/10.1016/j.ssi.2008.02.047,H
(BaO)1(ZrO2)0.9(In2O3)0.05,0.000308462,409.9173921,0,1.9,,https://doi.org/10.1016/j.ssi.2008.02.047,H
(BaO)1(HfO2)0.9(Y2O3)0.05,0.001001688,591.8869281,20,3,,https://doi.org/10.1016/j.scriptamat.2004.08.021,H
(BaO)1(HfO2)0.9(Y2O3)0.05,0.000473702,493.0316752,20,3,,https://doi.org/10.1016/j.scriptamat.2004.08.021,H
(BaO)1(HfO2)0.9(Y2O3)0.05,0.000149751,389.5228307,20,3,,https://doi.org/10.1016/j.scriptamat.2004.08.021,H
(BaO)1(HfO2)0.9(Y2O3)0.05,4.22033E-05,308.9594754,20,3,,https://doi.org/10.1016/j.scriptamat.2004.08.021,H
(BaO)1(HfO2)0.9(Y2O3)0.05,6.69914E-06,243.1631261,20,3,,https://doi.org/10.1016/j.scriptamat.2004.08.021,H
(BaO)1(HfO2)0.9(Y2O3)0.05,1.12652E-06,193.9634718,20,3,,https://doi.org/10.1016/j.scriptamat.2004.08.021,H
(BaO)1(HfO2)0.9(Y2O3)0.05,4.24693E-08,124.6308231,20,3,,https://doi.org/10.1016/j.scriptamat.2004.08.021,H
(BaO)1(HfO2)0.9(Y2O3)0.05,8.01086E-09,95.45701037,20,3,,https://doi.org/10.1016/j.scriptamat.2004.08.021,H
(BaO)1(CeO2)0.9(Sc2O3)0.05,0.139063414,905.1011781,0,1.9,,https://doi.org/10.1149/1.2458743,H
(BaO)1(CeO2)0.9(Sc2O3)0.05,0.1,855.8180611,0,1.9,,https://doi.org/10.1149/1.2458743,H
(BaO)1(CeO2)0.9(Sc2O3)0.05,0.087,806.3650794,0,1.9,,https://doi.org/10.1149/1.2458743,H
(BaO)1(CeO2)0.9(Sc2O3)0.05,0.055,755.4331518,0,1.9,,https://doi.org/10.1149/1.2458743,H
(BaO)1(CeO2)0.9(Sc2O3)0.05,0.042221479,707.3921569,0,1.9,,https://doi.org/10.1149/1.2458743,H
(BaO)1(CeO2)0.9(Sc2O3)0.05,0.023,652.9259259,0,1.9,,https://doi.org/10.1149/1.2458743,H
(BaO)1(CeO2)0.9(Sc2O3)0.05,0.019679171,605.5529716,0,1.9,,https://doi.org/10.1149/1.2458743,H
(BaO)1(CeO2)0.9(Sc2O3)0.05,0.011,554.2506083,0,1.9,,https://doi.org/10.1149/1.2458743,H
(BaO)1(CeO2)0.9(Sc2O3)0.05,0.01,508.6091954,0,1.9,,https://doi.org/10.1149/1.2458743,H
(BaO)1(CeO2)0.9(Sc2O3)0.05,0.003483054,456.3007293,0,1.9,,https://doi.org/10.1149/1.2458743,H
(BaO)1(CeO2)0.9(Sc2O3)0.05,0.002828952,402.4072308,0,1.9,,https://doi.org/10.1149/1.2458743,H
(BaO)1(CeO2)0.9(In2O3)0.05,0.0048,806.3650794,0,1.9,,https://doi.org/10.1149/1.2458743,H
(BaO)1(CeO2)0.9(In2O3)0.05,0.003689591,757.3030303,0,1.9,,https://doi.org/10.1149/1.2458743,H
(BaO)1(CeO2)0.9(In2O3)0.05,0.001832797,707.3921569,0,1.9,,https://doi.org/10.1149/1.2458743,H
(BaO)1(CeO2)0.9(In2O3)0.05,0.006261985,654.441353,0,1.9,,https://doi.org/10.1149/1.2458743,H
(BaO)1(CeO2)0.9(In2O3)0.05,0.004132143,604.1929825,0,1.9,,https://doi.org/10.1149/1.2458743,H
(BaO)1(CeO2)0.9(In2O3)0.05,0.002447621,554.2506083,0,1.9,,https://doi.org/10.1149/1.2458743,H
(BaO)1(CeO2)0.9(In2O3)0.05,0.001244344,508.6091954,0,1.9,,https://doi.org/10.1149/1.2458743,H
(BaO)1(CeO2)0.9(In2O3)0.05,0.00053367,457.2405498,0,1.9,,https://doi.org/10.1149/1.2458743,H
(BaO)1(CeO2)0.9(In2O3)0.05,0.000178682,403.213206,0,1.9,,https://doi.org/10.1149/1.2458743,H
(BaO)1(CeO2)0.9(Y2O3)0.05,0.01,600,20,3,,https://doi.org/10.1016/j.electacta.2019.02.112,H
(BaO)1(CeO2)0.9(Y2O3)0.05,0.019,700,20,3,,https://doi.org/10.1016/j.electacta.2019.02.112,H
(BaO)1(ZrO2)0.9(Dy2O3)0.05,0.000833998,798.2328767,0,4,,https://doi.org/10.1016/j.electacta.2012.05.002,H
(BaO)1(ZrO2)0.9(Dy2O3)0.05,0.000732309,748.9550444,0,4,,https://doi.org/10.1016/j.electacta.2012.05.002,H
(BaO)1(ZrO2)0.9(Dy2O3)0.05,0.000655983,698.1872827,0,4,,https://doi.org/10.1016/j.electacta.2012.05.002,H
(BaO)1(ZrO2)0.9(Dy2O3)0.05,0.000577892,650.4766179,0,4,,https://doi.org/10.1016/j.electacta.2012.05.002,H
(BaO)1(ZrO2)0.9(Dy2O3)0.05,0.00046525,599.3784025,0,4,,https://doi.org/10.1016/j.electacta.2012.05.002,H
(BaO)1(ZrO2)0.9(Dy2O3)0.05,0.000393224,550.8516646,0,4,,https://doi.org/10.1016/j.electacta.2012.05.002,H
(BaO)1(ZrO2)0.9(Dy2O3)0.05,0.000303691,500.0328193,0,4,,https://doi.org/10.1016/j.electacta.2012.05.002,H
(BaO)1(ZrO2)0.9(Dy2O3)0.05,0.000223959,450.8059978,0,4,,https://doi.org/10.1016/j.electacta.2012.05.002,H
(BaO)1(ZrO2)0.9(Dy2O3)0.05,0.000821045,798.2328767,20,0,,https://doi.org/10.1016/j.electacta.2012.05.002,H
(BaO)1(ZrO2)0.9(Dy2O3)0.05,0.000744906,748.9550444,20,0,,https://doi.org/10.1016/j.electacta.2012.05.002,H
(BaO)1(ZrO2)0.9(Dy2O3)0.05,0.000646556,698.1872827,20,0,,https://doi.org/10.1016/j.electacta.2012.05.002,H
(BaO)1(ZrO2)0.9(Dy2O3)0.05,0.000509387,650.4766179,20,0,,https://doi.org/10.1016/j.electacta.2012.05.002,H
(BaO)1(ZrO2)0.9(Dy2O3)0.05,0.00044478,599.3784025,20,0,,https://doi.org/10.1016/j.electacta.2012.05.002,H
(BaO)1(ZrO2)0.9(Dy2O3)0.05,0.000320445,550.8516646,20,0,,https://doi.org/10.1016/j.electacta.2012.05.002,H
(BaO)1(ZrO2)0.9(Dy2O3)0.05,0.000232358,500.0328193,20,0,,https://doi.org/10.1016/j.electacta.2012.05.002,H
(BaO)1(ZrO2)0.9(Dy2O3)0.05,0.000153347,450.8059978,20,0,,https://doi.org/10.1016/j.electacta.2012.05.002,H
(BaO)1(CeO2)0.9(La2O3)0.05,0.010477746,752.2808989,20,1.9,1.5,https://doi.org/10.1016/j.jpowsour.2010.11.120,O+H
(BaO)1(CeO2)0.9(La2O3)0.05,0.007976603,697.7446809,20,1.9,1.5,https://doi.org/10.1016/j.jpowsour.2010.11.120,O+H
(BaO)1(CeO2)0.9(La2O3)0.05,0.006072509,648.7171717,20,1.9,1.5,https://doi.org/10.1016/j.jpowsour.2010.11.120,O+H
(BaO)1(CeO2)0.9(La2O3)0.05,0.004623482,600.2057416,20,1.9,1.5,https://doi.org/10.1016/j.jpowsour.2010.11.120,O+H
(BaO)1(CeO2)0.9(La2O3)0.05,0.003288004,549.0720721,20,1.9,1.5,https://doi.org/10.1016/j.jpowsour.2010.11.120,O+H
(BaO)1(CeO2)0.9(La2O3)0.05,0.002338548,500.3050847,20,1.9,1.5,https://doi.org/10.1016/j.jpowsour.2010.11.120,O+H
(BaO)1(CeO2)0.9(La2O3)0.05,0.001401886,451.2063492,20,1.9,1.5,https://doi.org/10.1016/j.jpowsour.2010.11.120,O+H
(BaO)1(CeO2)0.9(La2O3)0.05,0.000758617,400.4317343,20,1.9,1.5,https://doi.org/10.1016/j.jpowsour.2010.11.120,O+H
(BaO)1(CeO2)0.9(La2O3)0.05,0.000370574,349.8668942,20,1.9,1.5,https://doi.org/10.1016/j.jpowsour.2010.11.120,O+H
(BaO)1(CeO2)0.9(La2O3)0.05,0.000157925,299.1003135,20,1.9,1.5,https://doi.org/10.1016/j.jpowsour.2010.11.120,O+H
(BaO)1(CeO2)0.9(La2O3)0.05,4.46472E-05,249.9226361,20,1.9,1.5,https://doi.org/10.1016/j.jpowsour.2010.11.120,O+H
(BaO)1(CeO2)0.9(La2O3)0.05,9.94154E-06,198.5762274,20,1.9,1.5,https://doi.org/10.1016/j.jpowsour.2010.11.120,O+H
(BaO)1(CeO2)0.9(La2O3)0.05,1.19622E-06,149.4537037,20,1.9,1.5,https://doi.org/10.1016/j.jpowsour.2010.11.120,O+H
(BaO)1(CeO2)0.9(La2O3)0.05,0.006245095,752.2808989,0,1.9,1.5,https://doi.org/10.1016/j.jpowsour.2010.11.120,H
(BaO)1(CeO2)0.9(La2O3)0.05,0.00563546,697.7446809,0,1.9,1.5,https://doi.org/10.1016/j.jpowsour.2010.11.120,H
(BaO)1(CeO2)0.9(La2O3)0.05,0.005262469,648.7171717,0,1.9,1.5,https://doi.org/10.1016/j.jpowsour.2010.11.120,H
(BaO)1(CeO2)0.9(La2O3)0.05,0.004434454,600.2057416,0,1.9,1.5,https://doi.org/10.1016/j.jpowsour.2010.11.120,H
(BaO)1(CeO2)0.9(La2O3)0.05,0.003489401,549.0720721,0,1.9,1.5,https://doi.org/10.1016/j.jpowsour.2010.11.120,H
(BaO)1(CeO2)0.9(La2O3)0.05,0.002477719,500.3050847,0,1.9,1.5,https://doi.org/10.1016/j.jpowsour.2010.11.120,H
(BaO)1(CeO2)0.9(La2O3)0.05,0.00153417,451.2063492,0,1.9,1.5,https://doi.org/10.1016/j.jpowsour.2010.11.120,H
(BaO)1(CeO2)0.9(La2O3)0.05,0.000887065,400.4317343,0,1.9,1.5,https://doi.org/10.1016/j.jpowsour.2010.11.120,H
(BaO)1(CeO2)0.9(La2O3)0.05,0.000432203,349.8668942,0,1.9,1.5,https://doi.org/10.1016/j.jpowsour.2010.11.120,H
(BaO)1(CeO2)0.9(La2O3)0.05,0.000177448,299.1003135,0,1.9,1.5,https://doi.org/10.1016/j.jpowsour.2010.11.120,H
(BaO)1(CeO2)0.9(La2O3)0.05,5.73277E-05,249.9226361,0,1.9,1.5,https://doi.org/10.1016/j.jpowsour.2010.11.120,H
(BaO)1(CeO2)0.9(La2O3)0.05,1.22806E-05,198.5762274,0,1.9,1.5,https://doi.org/10.1016/j.jpowsour.2010.11.120,H
(BaO)1(CeO2)0.9(La2O3)0.05,1.62891E-06,149.4537037,0,1.9,1.5,https://doi.org/10.1016/j.jpowsour.2010.11.120,H
(BaO)1(CeO2)0.9(Nd2O3)0.05,0.018752361,752.2808989,20,1.9,1.4,https://doi.org/10.1016/j.jpowsour.2010.11.120,O+H
(BaO)1(CeO2)0.9(Nd2O3)0.05,0.012447313,702.9358289,20,1.9,1.4,https://doi.org/10.1016/j.jpowsour.2010.11.120,O+H
(BaO)1(CeO2)0.9(Nd2O3)0.05,0.007985962,648.7171717,20,1.9,1.4,https://doi.org/10.1016/j.jpowsour.2010.11.120,O+H
(BaO)1(CeO2)0.9(Nd2O3)0.05,0.006511306,600.2057416,20,1.9,1.4,https://doi.org/10.1016/j.jpowsour.2010.11.120,O+H
(BaO)1(CeO2)0.9(Nd2O3)0.05,0.004324057,549.0720721,20,1.9,1.4,https://doi.org/10.1016/j.jpowsour.2010.11.120,O+H
(BaO)1(CeO2)0.9(Nd2O3)0.05,0.002871876,500.3050847,20,1.9,1.4,https://doi.org/10.1016/j.jpowsour.2010.11.120,O+H
(BaO)1(CeO2)0.9(Nd2O3)0.05,0.002043302,448.3438735,20,1.9,1.4,https://doi.org/10.1016/j.jpowsour.2010.11.120,O+H
(BaO)1(CeO2)0.9(Nd2O3)0.05,0.001184082,397.9558824,20,1.9,1.4,https://doi.org/10.1016/j.jpowsour.2010.11.120,O+H
(BaO)1(CeO2)0.9(Nd2O3)0.05,0.000578341,349.8668942,20,1.9,1.4,https://doi.org/10.1016/j.jpowsour.2010.11.120,O+H
(BaO)1(CeO2)0.9(Nd2O3)0.05,0.000238172,299.1003135,20,1.9,1.4,https://doi.org/10.1016/j.jpowsour.2010.11.120,O+H
(BaO)1(CeO2)0.9(Nd2O3)0.05,7.99065E-05,249.9226361,20,1.9,1.4,https://doi.org/10.1016/j.jpowsour.2010.11.120,O+H
(BaO)1(CeO2)0.9(Nd2O3)0.05,2.26089E-05,199.7979275,20,1.9,1.4,https://doi.org/10.1016/j.jpowsour.2010.11.120,O+H
(BaO)1(CeO2)0.9(Nd2O3)0.05,4.10277E-06,150.4338747,20,1.9,1.4,https://doi.org/10.1016/j.jpowsour.2010.11.120,O+H
(BaO)1(CeO2)0.9(Nd2O3)0.05,0.013264063,752.2808989,0,1.9,1.4,https://doi.org/10.1016/j.jpowsour.2010.11.120,H
(BaO)1(CeO2)0.9(Nd2O3)0.05,0.012386163,702.9358289,0,1.9,1.4,https://doi.org/10.1016/j.jpowsour.2010.11.120,H
(BaO)1(CeO2)0.9(Nd2O3)0.05,0.010800833,648.7171717,0,1.9,1.4,https://doi.org/10.1016/j.jpowsour.2010.11.120,H
(BaO)1(CeO2)0.9(Nd2O3)0.05,0.009746475,600.2057416,0,1.9,1.4,https://doi.org/10.1016/j.jpowsour.2010.11.120,H
(BaO)1(CeO2)0.9(Nd2O3)0.05,0.007936486,549.0720721,0,1.9,1.4,https://doi.org/10.1016/j.jpowsour.2010.11.120,H
(BaO)1(CeO2)0.9(Nd2O3)0.05,0.00563546,500.3050847,0,1.9,1.4,https://doi.org/10.1016/j.jpowsour.2010.11.120,H
(BaO)1(CeO2)0.9(Nd2O3)0.05,0.004001571,448.3438735,0,1.9,1.4,https://doi.org/10.1016/j.jpowsour.2010.11.120,H
(BaO)1(CeO2)0.9(Nd2O3)0.05,0.002477719,397.9558824,0,1.9,1.4,https://doi.org/10.1016/j.jpowsour.2010.11.120,H
(BaO)1(CeO2)0.9(Nd2O3)0.05,0.001337809,349.8668942,0,1.9,1.4,https://doi.org/10.1016/j.jpowsour.2010.11.120,H
(BaO)1(CeO2)0.9(Nd2O3)0.05,0.000512905,299.1003135,0,1.9,1.4,https://doi.org/10.1016/j.jpowsour.2010.11.120,H
(BaO)1(CeO2)0.9(Nd2O3)0.05,0.000196644,249.9226361,0,1.9,1.4,https://doi.org/10.1016/j.jpowsour.2010.11.120,H
(BaO)1(CeO2)0.9(Nd2O3)0.05,5.35334E-05,199.7979275,0,1.9,1.4,https://doi.org/10.1016/j.jpowsour.2010.11.120,H
(BaO)1(CeO2)0.9(Nd2O3)0.05,9.33814E-06,150.4338747,0,1.9,1.4,https://doi.org/10.1016/j.jpowsour.2010.11.120,H
(BaO)1(CeO2)0.9(Sm2O3)0.05,0.027329063,752.2808989,20,1.9,1.3,https://doi.org/10.1016/j.jpowsour.2010.11.120,O+H
(BaO)1(CeO2)0.9(Sm2O3)0.05,0.021527512,702.9358289,20,1.9,1.3,https://doi.org/10.1016/j.jpowsour.2010.11.120,O+H
(BaO)1(CeO2)0.9(Sm2O3)0.05,0.016390602,648.7171717,20,1.9,1.3,https://doi.org/10.1016/j.jpowsour.2010.11.120,O+H
(BaO)1(CeO2)0.9(Sm2O3)0.05,0.01205941,600.2057416,20,1.9,1.3,https://doi.org/10.1016/j.jpowsour.2010.11.120,O+H
(BaO)1(CeO2)0.9(Sm2O3)0.05,0.00887377,552.7918552,20,1.9,1.3,https://doi.org/10.1016/j.jpowsour.2010.11.120,O+H
(BaO)1(CeO2)0.9(Sm2O3)0.05,0.006312089,500.3050847,20,1.9,1.3,https://doi.org/10.1016/j.jpowsour.2010.11.120,O+H
(BaO)1(CeO2)0.9(Sm2O3)0.05,0.004193727,448.3438735,20,1.9,1.3,https://doi.org/10.1016/j.jpowsour.2010.11.120,O+H
(BaO)1(CeO2)0.9(Sm2O3)0.05,0.002602186,400.4317343,20,1.9,1.3,https://doi.org/10.1016/j.jpowsour.2010.11.120,O+H
(BaO)1(CeO2)0.9(Sm2O3)0.05,0.001408642,349.8668942,20,1.9,1.3,https://doi.org/10.1016/j.jpowsour.2010.11.120,O+H
(BaO)1(CeO2)0.9(Sm2O3)0.05,0.000642861,299.1003135,20,1.9,1.3,https://doi.org/10.1016/j.jpowsour.2010.11.120,O+H
(BaO)1(CeO2)0.9(Sm2O3)0.05,0.000247336,249.9226361,20,1.9,1.3,https://doi.org/10.1016/j.jpowsour.2010.11.120,O+H
(BaO)1(CeO2)0.9(Sm2O3)0.05,5.69859E-05,199.7979275,20,1.9,1.3,https://doi.org/10.1016/j.jpowsour.2010.11.120,O+H
(BaO)1(CeO2)0.9(Sm2O3)0.05,8.13816E-06,149.4537037,20,1.9,1.3,https://doi.org/10.1016/j.jpowsour.2010.11.120,O+H
(BaO)1(CeO2)0.9(Sm2O3)0.05,0.015210943,752.2808989,0,1.9,1.3,https://doi.org/10.1016/j.jpowsour.2010.11.120,H
(BaO)1(CeO2)0.9(Sm2O3)0.05,0.013726078,702.9358289,0,1.9,1.3,https://doi.org/10.1016/j.jpowsour.2010.11.120,H
(BaO)1(CeO2)0.9(Sm2O3)0.05,0.012386163,648.7171717,0,1.9,1.3,https://doi.org/10.1016/j.jpowsour.2010.11.120,H
(BaO)1(CeO2)0.9(Sm2O3)0.05,0.011177049,600.2057416,0,1.9,1.3,https://doi.org/10.1016/j.jpowsour.2010.11.120,H
(BaO)1(CeO2)0.9(Sm2O3)0.05,0.009101392,552.7918552,0,1.9,1.3,https://doi.org/10.1016/j.jpowsour.2010.11.120,H
(BaO)1(CeO2)0.9(Sm2O3)0.05,0.006687731,500.3050847,0,1.9,1.3,https://doi.org/10.1016/j.jpowsour.2010.11.120,H
(BaO)1(CeO2)0.9(Sm2O3)0.05,0.004748757,448.3438735,0,1.9,1.3,https://doi.org/10.1016/j.jpowsour.2010.11.120,H
(BaO)1(CeO2)0.9(Sm2O3)0.05,0.002940367,400.4317343,0,1.9,1.3,https://doi.org/10.1016/j.jpowsour.2010.11.120,H
(BaO)1(CeO2)0.9(Sm2O3)0.05,0.001700134,349.8668942,0,1.9,1.3,https://doi.org/10.1016/j.jpowsour.2010.11.120,H
(BaO)1(CeO2)0.9(Sm2O3)0.05,0.000698017,299.1003135,0,1.9,1.3,https://doi.org/10.1016/j.jpowsour.2010.11.120,H
(BaO)1(CeO2)0.9(Sm2O3)0.05,0.000258606,249.9226361,0,1.9,1.3,https://doi.org/10.1016/j.jpowsour.2010.11.120,H
(BaO)1(CeO2)0.9(Sm2O3)0.05,7.2854E-05,199.7979275,0,1.9,1.3,https://doi.org/10.1016/j.jpowsour.2010.11.120,H
(BaO)1(CeO2)0.9(Sm2O3)0.05,1.61502E-05,149.4537037,0,1.9,1.3,https://doi.org/10.1016/j.jpowsour.2010.11.120,H
(BaO)1(CeO2)0.9(Gd2O3)0.05,0.041215768,752.2808989,20,1.9,1.2,https://doi.org/10.1016/j.jpowsour.2010.11.120,O+H
(BaO)1(CeO2)0.9(Gd2O3)0.05,0.031373474,702.9358289,20,1.9,1.2,https://doi.org/10.1016/j.jpowsour.2010.11.120,O+H
(BaO)1(CeO2)0.9(Gd2O3)0.05,0.023887113,648.7171717,20,1.9,1.2,https://doi.org/10.1016/j.jpowsour.2010.11.120,O+H
(BaO)1(CeO2)0.9(Gd2O3)0.05,0.018187153,600.2057416,20,1.9,1.2,https://doi.org/10.1016/j.jpowsour.2010.11.120,O+H
(BaO)1(CeO2)0.9(Gd2O3)0.05,0.014333014,549.0720721,20,1.9,1.2,https://doi.org/10.1016/j.jpowsour.2010.11.120,O+H
(BaO)1(CeO2)0.9(Gd2O3)0.05,0.010549247,500.3050847,20,1.9,1.2,https://doi.org/10.1016/j.jpowsour.2010.11.120,O+H
(BaO)1(CeO2)0.9(Gd2O3)0.05,0.007252162,451.2063492,20,1.9,1.2,https://doi.org/10.1016/j.jpowsour.2010.11.120,O+H
(BaO)1(CeO2)0.9(Gd2O3)0.05,0.004657217,400.4317343,20,1.9,1.2,https://doi.org/10.1016/j.jpowsour.2010.11.120,O+H
(BaO)1(CeO2)0.9(Gd2O3)0.05,0.002521093,349.8668942,20,1.9,1.2,https://doi.org/10.1016/j.jpowsour.2010.11.120,O+H
(BaO)1(CeO2)0.9(Gd2O3)0.05,0.001190626,299.1003135,20,1.9,1.2,https://doi.org/10.1016/j.jpowsour.2010.11.120,O+H
(BaO)1(CeO2)0.9(Gd2O3)0.05,0.000442666,249.9226361,20,1.9,1.2,https://doi.org/10.1016/j.jpowsour.2010.11.120,O+H
(BaO)1(CeO2)0.9(Gd2O3)0.05,0.000125249,199.7979275,20,1.9,1.2,https://doi.org/10.1016/j.jpowsour.2010.11.120,O+H
(BaO)1(CeO2)0.9(Gd2O3)0.05,2.27312E-05,149.4537037,20,1.9,1.2,https://doi.org/10.1016/j.jpowsour.2010.11.120,O+H
(BaO)1(CeO2)0.9(Gd2O3)0.05,0.023739124,752.2808989,0,1.9,1.2,https://doi.org/10.1016/j.jpowsour.2010.11.120,H
(BaO)1(CeO2)0.9(Gd2O3)0.05,0.021421754,702.9358289,0,1.9,1.2,https://doi.org/10.1016/j.jpowsour.2010.11.120,H