Composition,Conductivity (S/cm),Temperature (degC),PO2 (%),PH2O (%),Grainsize,Ref,Carrier Type
(La2O3)0.4(SrO2)0.2(Ga2O3)0.4(MgO)0.2,0.019268526,600.539188,0,4,,https://doi.org/10.1002/adma.200601366,O
(La2O3)0.4(SrO2)0.2(Ga2O3)0.4(MgO)0.2,0.010427539,549.9245499,0,4,,https://doi.org/10.1002/adma.200601366,O
(La2O3)0.4(SrO2)0.2(Ga2O3)0.4(MgO)0.2,0.005336699,500.3943218,0,4,,https://doi.org/10.1002/adma.200601366,O
(La2O3)0.4(SrO2)0.2(Ga2O3)0.4(MgO)0.2,0.001359356,448.7437548,0,4,,https://doi.org/10.1002/adma.200601366,O
(La2O3)0.4(SrO2)0.2(Ga2O3)0.4(MgO)0.2,0.000409375,400.1633899,0,4,,https://doi.org/10.1002/adma.200601366,O
(La2O3)0.4(SrO2)0.2(Ga2O3)0.4(MgO)0.2,0.000104275,347.5529872,0,4,,https://doi.org/10.1002/adma.200601366,O
(La2O3)0.4(SrO2)0.2(Ga2O3)0.4(MgO)0.2,2.00923E-05,297.7106618,0,4,,https://doi.org/10.1002/adma.200601366,O
(La2O3)0.425(SrO)0.15(Ga2O3)0.4(MgO)0.2,0.15,800,1.00E-03,0,,https://doi.org/10.1111/j.1151-2916.1998.tb02662.x,O
(La2O3)0.425(SrO)0.15(Ga2O3)0.4(MgO)0.2,0.07,702,1.00E-03,0,,https://doi.org/10.1111/j.1151-2916.1998.tb02662.x,O
(La2O3)0.425(SrO)0.15(Ga2O3)0.4(MgO)0.2,0.022,595,1.00E-03,0,,https://doi.org/10.1111/j.1151-2916.1998.tb02662.x,O
(La2O3)0.45(SrO)0.1(Ga2O3)0.4(MgO)0.2,0.281628442,1000,1.00E-02,0,,https://doi.org/10.1021/ja00088a016,O
(La2O3)0.45(SrO)0.1(Ga2O3)0.4(MgO)0.2,0.132,800,1.00E-03,0,,https://doi.org/10.1111/j.1151-2916.1998.tb02662.x,O
(La2O3)0.45(SrO)0.1(Ga2O3)0.4(MgO)0.2,0.06,702,1.00E-03,0,,https://doi.org/10.1111/j.1151-2916.1998.tb02662.x,O
(La2O3)0.45(SrO)0.1(Ga2O3)0.4(MgO)0.2,0.018,595,1.00E-03,0,,https://doi.org/10.1111/j.1151-2916.1998.tb02662.x,O
(La2O3)0.475(SrO)0.05(Ga2O3)0.4(MgO)0.2,0.113,800,1.00E-03,0,,https://doi.org/10.1111/j.1151-2916.1998.tb02662.x,O
(La2O3)0.475(SrO)0.05(Ga2O3)0.4(MgO)0.2,0.051,702,1.00E-03,0,,https://doi.org/10.1111/j.1151-2916.1998.tb02662.x,O
(La2O3)0.475(SrO)0.05(Ga2O3)0.4(MgO)0.2,0.013,595,1.00E-03,0,,https://doi.org/10.1111/j.1151-2916.1998.tb02662.x,O
(BaO)1(CeO2)0.5(ZrO2)0.3(YbO)0.2,0.076536918,895.5099143,20,1.9,2.25,https://doi.org/10.1016/j.electacta.2017.08.149,H+E
(BaO)1(CeO2)0.5(ZrO2)0.3(YbO)0.2,0.061248686,847.9321012,20,1.9,2.25,https://doi.org/10.1016/j.electacta.2017.08.149,H+E
(BaO)1(CeO2)0.5(ZrO2)0.3(YbO)0.2,0.049747836,798.1072187,20,1.9,2.25,https://doi.org/10.1016/j.electacta.2017.08.149,H+E
(BaO)1(CeO2)0.5(ZrO2)0.3(YbO)0.2,0.039810717,747.0397596,20,1.9,2.25,https://doi.org/10.1016/j.electacta.2017.08.149,H+E
(BaO)1(CeO2)0.5(ZrO2)0.3(YbO)0.2,0.032335339,698.9878502,20,1.9,2.25,https://doi.org/10.1016/j.electacta.2017.08.149,H+E
(BaO)1(CeO2)0.5(ZrO2)0.3(YbO)0.2,0.025118864,647.8870552,20,1.9,2.25,https://doi.org/10.1016/j.electacta.2017.08.149,H+E
(BaO)1(CeO2)0.5(ZrO2)0.3(YbO)0.2,0.016819243,599.2668386,20,1.9,2.25,https://doi.org/10.1016/j.electacta.2017.08.149,H+E
(BaO)1(CeO2)0.5(ZrO2)0.3(YbO)0.2,0.01287293,549.6448474,20,1.9,2.25,https://doi.org/10.1016/j.electacta.2017.08.149,H+E
(BaO)1(CeO2)0.5(ZrO2)0.3(YbO)0.2,0.009564123,500.1008027,20,1.9,2.25,https://doi.org/10.1016/j.electacta.2017.08.149,H+E
(BaO)1(CeO2)0.5(ZrO2)0.3(YbO)0.2,0.03278863,895.5099143,0,1.9,2.25,https://doi.org/10.1016/j.electacta.2017.08.149,H
(BaO)1(CeO2)0.5(ZrO2)0.3(YbO)0.2,0.030059892,847.9321012,0,1.9,2.25,https://doi.org/10.1016/j.electacta.2017.08.149,H
(BaO)1(CeO2)0.5(ZrO2)0.3(YbO)0.2,0.026771515,798.1072187,0,1.9,2.25,https://doi.org/10.1016/j.electacta.2017.08.149,H
(BaO)1(CeO2)0.5(ZrO2)0.3(YbO)0.2,0.025264792,747.0397596,0,1.9,2.25,https://doi.org/10.1016/j.electacta.2017.08.149,H
(BaO)1(CeO2)0.5(ZrO2)0.3(YbO)0.2,0.023162204,698.9878502,0,1.9,2.25,https://doi.org/10.1016/j.electacta.2017.08.149,H
(BaO)1(CeO2)0.5(ZrO2)0.3(YbO)0.2,0.021858615,647.8870552,0,1.9,2.25,https://doi.org/10.1016/j.electacta.2017.08.149,H
(BaO)1(CeO2)0.5(ZrO2)0.3(YbO)0.2,0.019751382,599.2668386,0,1.9,2.25,https://doi.org/10.1016/j.electacta.2017.08.149,H
(BaO)1(CeO2)0.5(ZrO2)0.3(YbO)0.2,0.016842831,549.6448474,0,1.9,2.25,https://doi.org/10.1016/j.electacta.2017.08.149,H
(BaO)1(CeO2)0.5(ZrO2)0.3(YbO)0.2,0.012607499,500.1008027,0,1.9,2.25,https://doi.org/10.1016/j.electacta.2017.08.149,H
(La2O3)0.35625(SrO)0.2375(Cr2O3)0.3(Fe2O3)0.2,0.193231723,950,6.64944E-15,0,,https://doi.org/10.1016/j.ssi.2013.01.005,E
(La2O3)0.35625(SrO)0.2375(Cr2O3)0.3(Fe2O3)0.2,0.932575562,950,1.68985E-14,0,,https://doi.org/10.1016/j.ssi.2013.01.005,E
(La2O3)0.35625(SrO)0.2375(Cr2O3)0.3(Fe2O3)0.2,2.594936709,950,1.09138E-13,0,,https://doi.org/10.1016/j.ssi.2013.01.005,E
(La2O3)0.35625(SrO)0.2375(Cr2O3)0.3(Fe2O3)0.2,4.257297856,950,7.04857E-13,0,,https://doi.org/10.1016/j.ssi.2013.01.005,E
(La2O3)0.35625(SrO)0.2375(Cr2O3)0.3(Fe2O3)0.2,5.735985533,950,4.55227E-12,0,,https://doi.org/10.1016/j.ssi.2013.01.005,E
(La2O3)0.35625(SrO)0.2375(Cr2O3)0.3(Fe2O3)0.2,6.477654353,950,1.84426E-11,0,,https://doi.org/10.1016/j.ssi.2013.01.005,E
(La2O3)0.35625(SrO)0.2375(Cr2O3)0.3(Fe2O3)0.2,9.804701627,950,1.22633E-09,0,,https://doi.org/10.1016/j.ssi.2013.01.005,E
(La2O3)0.35625(SrO)0.2375(Cr2O3)0.3(Fe2O3)0.2,10.54869543,950,7.92016E-09,0,,https://doi.org/10.1016/j.ssi.2013.01.005,E
(La2O3)0.35625(SrO)0.2375(Cr2O3)0.3(Fe2O3)0.2,11.84370964,950,5.11518E-08,0,,https://doi.org/10.1016/j.ssi.2013.01.005,E
(La2O3)0.35625(SrO)0.2375(Cr2O3)0.3(Fe2O3)0.2,12.95505037,950,3.3036E-07,0,,https://doi.org/10.1016/j.ssi.2013.01.005,E
(La2O3)0.35625(SrO)0.2375(Cr2O3)0.3(Fe2O3)0.2,13.51537071,950,2.1336E-06,0,,https://doi.org/10.1016/j.ssi.2013.01.005,E
(La2O3)0.35625(SrO)0.2375(Cr2O3)0.3(Fe2O3)0.2,14.07801602,950,2.19671E-05,0,,https://doi.org/10.1016/j.ssi.2013.01.005,E
(La2O3)0.35625(SrO)0.2375(Cr2O3)0.3(Fe2O3)0.2,14.09429088,950,0.000574769,0,,https://doi.org/10.1016/j.ssi.2013.01.005,E
(La2O3)0.35625(SrO)0.2375(Cr2O3)0.3(Fe2O3)0.2,14.11056575,950,0.015038869,0,,https://doi.org/10.1016/j.ssi.2013.01.005,E
(La2O3)0.35625(SrO)0.2375(Cr2O3)0.3(Fe2O3)0.2,14.12684061,950,0.393492726,0,,https://doi.org/10.1016/j.ssi.2013.01.005,E
(La2O3)0.35625(SrO)0.2375(Cr2O3)0.3(Fe2O3)0.2,14.32678894,950,10.29575567,0,,https://doi.org/10.1016/j.ssi.2013.01.005,E
(La2O3)0.35625(SrO)0.2375(Cr2O3)0.3(Fe2O3)0.2,0.769230769,800,3.88816E-17,0,,https://doi.org/10.1016/j.ssi.2013.01.005,E
(La2O3)0.35625(SrO)0.2375(Cr2O3)0.3(Fe2O3)0.2,2.153846154,800,2.57191E-16,0,,https://doi.org/10.1016/j.ssi.2013.01.005,E
(La2O3)0.35625(SrO)0.2375(Cr2O3)0.3(Fe2O3)0.2,3.769230769,800,1.70125E-15,0,,https://doi.org/10.1016/j.ssi.2013.01.005,E
(La2O3)0.35625(SrO)0.2375(Cr2O3)0.3(Fe2O3)0.2,5.384615385,800,1.12534E-14,0,,https://doi.org/10.1016/j.ssi.2013.01.005,E
(La2O3)0.35625(SrO)0.2375(Cr2O3)0.3(Fe2O3)0.2,7,800,7.4438E-14,0,,https://doi.org/10.1016/j.ssi.2013.01.005,E
(La2O3)0.35625(SrO)0.2375(Cr2O3)0.3(Fe2O3)0.2,7.923076923,800,7.89652E-13,0,,https://doi.org/10.1016/j.ssi.2013.01.005,E
(La2O3)0.35625(SrO)0.2375(Cr2O3)0.3(Fe2O3)0.2,12.07692308,800,1.4251E-10,0,,https://doi.org/10.1016/j.ssi.2013.01.005,E
(La2O3)0.35625(SrO)0.2375(Cr2O3)0.3(Fe2O3)0.2,12.76923077,800,3.66524E-10,0,,https://doi.org/10.1016/j.ssi.2013.01.005,E
(La2O3)0.35625(SrO)0.2375(Cr2O3)0.3(Fe2O3)0.2,13.23076923,800,1.51178E-09,0,,https://doi.org/10.1016/j.ssi.2013.01.005,E
(La2O3)0.35625(SrO)0.2375(Cr2O3)0.3(Fe2O3)0.2,13,800,0.001343399,0,,https://doi.org/10.1016/j.ssi.2013.01.005,E
(La2O3)0.35625(SrO)0.2375(Cr2O3)0.3(Fe2O3)0.2,13.23076923,800,6.614740641,0,,https://doi.org/10.1016/j.ssi.2013.01.005,E
(La2O3)0.35625(SrO)0.2375(Cr2O3)0.3(Fe2O3)0.2,13.23076923,800,43.75479375,0,,https://doi.org/10.1016/j.ssi.2013.01.005,E
(La2O3)0.35(SrO)0.3(Ga2O3)0.425(MgO)0.15,0.08,800,1.00E-03,0,,https://doi.org/10.1111/j.1151-2916.1998.tb02662.x,O
(La2O3)0.35(SrO)0.3(Ga2O3)0.425(MgO)0.15,0.038,702,1.00E-03,0,,https://doi.org/10.1111/j.1151-2916.1998.tb02662.x,O
(La2O3)0.35(SrO)0.3(Ga2O3)0.425(MgO)0.15,0.012,595,1.00E-03,0,,https://doi.org/10.1111/j.1151-2916.1998.tb02662.x,O
(La2O3)0.375(SrO)0.25(Ga2O3)0.425(MgO)0.15,0.125,800,1.00E-03,0,,https://doi.org/10.1111/j.1151-2916.1998.tb02662.x,O
(La2O3)0.375(SrO)0.25(Ga2O3)0.425(MgO)0.15,0.061,702,1.00E-03,0,,https://doi.org/10.1111/j.1151-2916.1998.tb02662.x,O
(La2O3)0.375(SrO)0.25(Ga2O3)0.425(MgO)0.15,0.02,595,1.00E-03,0,,https://doi.org/10.1111/j.1151-2916.1998.tb02662.x,O
(La2O3)0.4(SrO)0.2(Ga2O3)0.425(MgO)0.15,0.149,800,1.00E-03,0,,https://doi.org/10.1111/j.1151-2916.1998.tb02662.x,O
(La2O3)0.4(SrO)0.2(Ga2O3)0.425(MgO)0.15,0.073,702,1.00E-03,0,,https://doi.org/10.1111/j.1151-2916.1998.tb02662.x,O
(La2O3)0.4(SrO)0.2(Ga2O3)0.425(MgO)0.15,0.025,595,1.00E-03,0,,https://doi.org/10.1111/j.1151-2916.1998.tb02662.x,O
(La2O3)0.425(SrO)0.15(Ga2O3)0.425(MgO)0.15,0.141,800,1.00E-03,0,,https://doi.org/10.1111/j.1151-2916.1998.tb02662.x,O
(La2O3)0.425(SrO)0.15(Ga2O3)0.425(MgO)0.15,0.069,702,1.00E-03,0,,https://doi.org/10.1111/j.1151-2916.1998.tb02662.x,O
(La2O3)0.425(SrO)0.15(Ga2O3)0.425(MgO)0.15,0.023,595,1.00E-03,0,,https://doi.org/10.1111/j.1151-2916.1998.tb02662.x,O
(La2O3)0.45(SrO)0.1(Ga2O3)0.425(MgO)0.15,0.281838293,900,1.00E-17,0,,https://doi.org/10.1021/ja00088a016,O
(La2O3)0.45(SrO)0.1(Ga2O3)0.425(MgO)0.15,0.281838293,900,1.00E-12,0,,https://doi.org/10.1021/ja00088a016,O
(La2O3)0.45(SrO)0.1(Ga2O3)0.425(MgO)0.15,0.281838293,900,1.00E-07,0,,https://doi.org/10.1021/ja00088a016,O
(La2O3)0.45(SrO)0.1(Ga2O3)0.425(MgO)0.15,0.281838293,900,2.00E+01,0,,https://doi.org/10.1021/ja00088a016,O
(La2O3)0.45(SrO)0.1(Ga2O3)0.425(MgO)0.15,0.266113747,1000,1.00E-02,0,,https://doi.org/10.1021/ja00088a016,O
(La2O3)0.45(SrO)0.1(Ga2O3)0.425(MgO)0.15,0.127,800,1.00E-03,0,,https://doi.org/10.1111/j.1151-2916.1998.tb02662.x,O
(La2O3)0.45(SrO)0.1(Ga2O3)0.425(MgO)0.15,0.063,702,1.00E-03,0,,https://doi.org/10.1111/j.1151-2916.1998.tb02662.x,O
(La2O3)0.45(SrO)0.1(Ga2O3)0.425(MgO)0.15,0.021,595,1.00E-03,0,,https://doi.org/10.1111/j.1151-2916.1998.tb02662.x,O
(La2O3)0.475(SrO)0.05(Ga2O3)0.425(MgO)0.15,0.114,800,1.00E-03,0,,https://doi.org/10.1111/j.1151-2916.1998.tb02662.x,O
(La2O3)0.475(SrO)0.05(Ga2O3)0.425(MgO)0.15,0.057,702,1.00E-03,0,,https://doi.org/10.1111/j.1151-2916.1998.tb02662.x,O
(La2O3)0.475(SrO)0.05(Ga2O3)0.425(MgO)0.15,0.019,595,1.00E-03,0,,https://doi.org/10.1111/j.1151-2916.1998.tb02662.x,O
(La2O3)0.35625(SrO)0.2375(Cr2O3)0.35(Fe2O3)0.15,0.539653836,950,1E-16,0,,https://doi.org/10.1016/j.ssi.2013.01.005,E
(La2O3)0.35625(SrO)0.2375(Cr2O3)0.35(Fe2O3)0.15,1.832343064,950,4.0513E-16,0,,https://doi.org/10.1016/j.ssi.2013.01.005,E
(La2O3)0.35625(SrO)0.2375(Cr2O3)0.35(Fe2O3)0.15,3.494704211,950,2.6165E-15,0,,https://doi.org/10.1016/j.ssi.2013.01.005,E
(La2O3)0.35625(SrO)0.2375(Cr2O3)0.35(Fe2O3)0.15,5.157065358,950,1.68985E-14,0,,https://doi.org/10.1016/j.ssi.2013.01.005,E
(La2O3)0.35625(SrO)0.2375(Cr2O3)0.35(Fe2O3)0.15,6.452079566,950,1.09138E-13,0,,https://doi.org/10.1016/j.ssi.2013.01.005,E
(La2O3)0.35625(SrO)0.2375(Cr2O3)0.35(Fe2O3)0.15,7.930767244,950,7.04857E-13,0,,https://doi.org/10.1016/j.ssi.2013.01.005,E
(La2O3)0.35625(SrO)0.2375(Cr2O3)0.35(Fe2O3)0.15,9.409454921,950,4.55227E-12,0,,https://doi.org/10.1016/j.ssi.2013.01.005,E
(La2O3)0.35625(SrO)0.2375(Cr2O3)0.35(Fe2O3)0.15,10.33712219,950,2.94005E-11,0,,https://doi.org/10.1016/j.ssi.2013.01.005,E
(La2O3)0.35625(SrO)0.2375(Cr2O3)0.35(Fe2O3)0.15,11.08111599,950,1.89881E-10,0,,https://doi.org/10.1016/j.ssi.2013.01.005,E
(La2O3)0.35625(SrO)0.2375(Cr2O3)0.35(Fe2O3)0.15,12.19245673,950,1.22633E-09,0,,https://doi.org/10.1016/j.ssi.2013.01.005,E
(La2O3)0.35625(SrO)0.2375(Cr2O3)0.35(Fe2O3)0.15,12.93645053,950,7.92016E-09,0,,https://doi.org/10.1016/j.ssi.2013.01.005,E
(La2O3)0.35625(SrO)0.2375(Cr2O3)0.35(Fe2O3)0.15,13.49677086,950,5.11518E-08,0,,https://doi.org/10.1016/j.ssi.2013.01.005,E
(La2O3)0.35625(SrO)0.2375(Cr2O3)0.35(Fe2O3)0.15,14.23843968,950,2.07231E-07,0,,https://doi.org/10.1016/j.ssi.2013.01.005,E
(La2O3)0.35625(SrO)0.2375(Cr2O3)0.35(Fe2O3)0.15,14.98243348,950,1.33839E-06,0,,https://doi.org/10.1016/j.ssi.2013.01.005,E
(La2O3)0.35625(SrO)0.2375(Cr2O3)0.35(Fe2O3)0.15,15.54275381,950,8.64388E-06,0,,https://doi.org/10.1016/j.ssi.2013.01.005,E
(La2O3)0.35625(SrO)0.2375(Cr2O3)0.35(Fe2O3)0.15,15.74502712,950,0.000360547,0,,https://doi.org/10.1016/j.ssi.2013.01.005,E
(La2O3)0.35625(SrO)0.2375(Cr2O3)0.35(Fe2O3)0.15,15.76130199,950,0.009433732,0,,https://doi.org/10.1016/j.ssi.2013.01.005,E
(La2O3)0.35625(SrO)0.2375(Cr2O3)0.35(Fe2O3)0.15,15.78222681,950,0.627289986,0,,https://doi.org/10.1016/j.ssi.2013.01.005,E
(La2O3)0.35625(SrO)0.2375(Cr2O3)0.35(Fe2O3)0.15,15.79850168,950,16.41307195,0,,https://doi.org/10.1016/j.ssi.2013.01.005,E
(La2O3)0.35625(SrO)0.2375(Cr2O3)0.35(Fe2O3)0.15,14.61538462,800,9.42668E-18,0,,https://doi.org/10.1016/j.ssi.2013.01.005,E
(La2O3)0.35625(SrO)0.2375(Cr2O3)0.35(Fe2O3)0.15,14.38461538,800,1E-16,0,,https://doi.org/10.1016/j.ssi.2013.01.005,E
(La2O3)0.35625(SrO)0.2375(Cr2O3)0.35(Fe2O3)0.15,14.38461538,800,2.72833E-15,0,,https://doi.org/10.1016/j.ssi.2013.01.005,E
(La2O3)0.35625(SrO)0.2375(Cr2O3)0.35(Fe2O3)0.15,14.15384615,800,2.89427E-14,0,,https://doi.org/10.1016/j.ssi.2013.01.005,E
(La2O3)0.35625(SrO)0.2375(Cr2O3)0.35(Fe2O3)0.15,14.38461538,800,3.07029E-13,0,,https://doi.org/10.1016/j.ssi.2013.01.005,E
(La2O3)0.35625(SrO)0.2375(Cr2O3)0.35(Fe2O3)0.15,14.61538462,800,3.25702E-12,0,,https://doi.org/10.1016/j.ssi.2013.01.005,E
(La2O3)0.35625(SrO)0.2375(Cr2O3)0.35(Fe2O3)0.15,14.84615385,800,8.88624E-11,0,,https://doi.org/10.1016/j.ssi.2013.01.005,E
(La2O3)0.35625(SrO)0.2375(Cr2O3)0.35(Fe2O3)0.15,14.84615385,800,9.42668E-10,0,,https://doi.org/10.1016/j.ssi.2013.01.005,E
(La2O3)0.35625(SrO)0.2375(Cr2O3)0.35(Fe2O3)0.15,14.84615385,800,1.60372E-08,0,,https://doi.org/10.1016/j.ssi.2013.01.005,E
(La2O3)0.35625(SrO)0.2375(Cr2O3)0.35(Fe2O3)0.15,15.30769231,800,0.003455107,0,,https://doi.org/10.1016/j.ssi.2013.01.005,E
(La2O3)0.35625(SrO)0.2375(Cr2O3)0.35(Fe2O3)0.15,14.84615385,800,0.058780161,0,,https://doi.org/10.1016/j.ssi.2013.01.005,E
(La2O3)0.35625(SrO)0.2375(Cr2O3)0.35(Fe2O3)0.15,15.07692308,800,1.603718744,0,,https://doi.org/10.1016/j.ssi.2013.01.005,E
(La2O3)0.35625(SrO)0.2375(Cr2O3)0.35(Fe2O3)0.15,14.84615385,800,27.28333376,0,,https://doi.org/10.1016/j.ssi.2013.01.005,E
(Nd2O3)0.45(CaO)0.1(Al2O3)0.35(Ga2O3)0.15,0.026567717,950,2.25E-20,0,,10.1149/1.2059351,O
(Nd2O3)0.45(CaO)0.1(Al2O3)0.35(Ga2O3)0.15,0.027023047,950,2.81E-18,0,,10.1149/1.2059351,O
(Nd2O3)0.45(CaO)0.1(Al2O3)0.35(Ga2O3)0.15,0.027720715,950,1.74E-10,0,,10.1149/1.2059351,O
(Nd2O3)0.45(CaO)0.1(Al2O3)0.35(Ga2O3)0.15,0.027023047,950,1.27E-02,0,,10.1149/1.2059351,O
(Nd2O3)0.45(CaO)0.1(Al2O3)0.35(Ga2O3)0.15,0.031757406,950,4.22E+01,0,,10.1149/1.2059351,O
(Nd2O3)0.45(CaO)0.1(Al2O3)0.35(Ga2O3)0.15,0.026538258,950,1.00E-03,0,,10.1149/1.2059351,O
(BaO)1(CeO2)0.4(ZrO2)0.3(In2O3)0.15,0.001055967,673.9992206,20,0,,https://doi.org/10.1016/j.jallcom.2012.11.197,H
(BaO)1(CeO2)0.4(ZrO2)0.3(In2O3)0.15,0.000621884,625.0044346,20,0,,https://doi.org/10.1016/j.jallcom.2012.11.197,H
(BaO)1(CeO2)0.4(ZrO2)0.3(In2O3)0.15,0.000378176,574.871598,20,0,,https://doi.org/10.1016/j.jallcom.2012.11.197,H
(BaO)1(CeO2)0.4(ZrO2)0.3(In2O3)0.15,0.000200883,524.767564,20,0,,https://doi.org/10.1016/j.jallcom.2012.11.197,H
(BaO)1(CeO2)0.4(ZrO2)0.3(In2O3)0.15,0.00011955,475.6136784,20,0,,https://doi.org/10.1016/j.jallcom.2012.11.197,H
(BaO)1(CeO2)0.4(ZrO2)0.3(In2O3)0.15,6.23414E-05,425.6774008,20,0,,https://doi.org/10.1016/j.jallcom.2012.11.197,H
(BaO)1(CeO2)0.4(ZrO2)0.3(In2O3)0.15,0.001345592,673.9992206,20,1.9,,https://doi.org/10.1016/j.jallcom.2012.11.197,H
(BaO)1(CeO2)0.4(ZrO2)0.3(In2O3)0.15,0.000873893,625.0044346,20,1.9,,https://doi.org/10.1016/j.jallcom.2012.11.197,H
(BaO)1(CeO2)0.4(ZrO2)0.3(In2O3)0.15,0.000552997,574.871598,20,1.9,,https://doi.org/10.1016/j.jallcom.2012.11.197,H
(BaO)1(CeO2)0.4(ZrO2)0.3(In2O3)0.15,0.000311072,524.767564,20,1.9,,https://doi.org/10.1016/j.jallcom.2012.11.197,H
(BaO)1(CeO2)0.4(ZrO2)0.3(In2O3)0.15,0.000175454,475.6136784,20,1.9,,https://doi.org/10.1016/j.jallcom.2012.11.197,H
(BaO)1(CeO2)0.4(ZrO2)0.3(In2O3)0.15,9.37588E-05,425.6774008,20,1.9,,https://doi.org/10.1016/j.jallcom.2012.11.197,H
(Nd2O3)0.2(SrO)0.6(CoO2)0.8(Fe2O3)0.1,208.0681307,995.3029601,20,0,,https://doi.org/10.1016/S0167-2738(98)00428-7,O+E
(Nd2O3)0.2(SrO)0.6(CoO2)0.8(Fe2O3)0.1,309.6245093,817.7773147,20,0,,https://doi.org/10.1016/S0167-2738(98)00428-7,O+E
(Nd2O3)0.2(SrO)0.6(CoO2)0.8(Fe2O3)0.1,424.1146398,673.4292733,20,0,,https://doi.org/10.1016/S0167-2738(98)00428-7,O+E
(Nd2O3)0.2(SrO)0.6(CoO2)0.8(Fe2O3)0.1,559.0900671,539.1964382,20,0,,https://doi.org/10.1016/S0167-2738(98)00428-7,O+E
(Nd2O3)0.2(SrO)0.6(CoO2)0.8(Fe2O3)0.1,676.0145951,450.3186146,20,0,,https://doi.org/10.1016/S0167-2738(98)00428-7,O+E
(Nd2O3)0.2(SrO)0.6(CoO2)0.8(Fe2O3)0.1,706.9336358,369.3388818,20,0,,https://doi.org/10.1016/S0167-2738(98)00428-7,O+E
(Nd2O3)0.2(SrO)0.6(CoO2)0.8(Fe2O3)0.1,636.5392599,312.6031128,20,0,,https://doi.org/10.1016/S0167-2738(98)00428-7,O+E
(Nd2O3)0.2(SrO)0.6(CoO2)0.8(Fe2O3)0.1,593.8411087,255.1512513,20,0,,https://doi.org/10.1016/S0167-2738(98)00428-7,O+E
(Nd2O3)0.2(SrO)0.6(CoO2)0.8(Fe2O3)0.1,594.1632621,205.2617331,20,0,,https://doi.org/10.1016/S0167-2738(98)00428-7,O+E
(Nd2O3)0.2(SrO)0.6(CoO2)0.8(Fe2O3)0.1,601.1561124,155.2792352,20,0,,https://doi.org/10.1016/S0167-2738(98)00428-7,O+E
(Nd2O3)0.2(SrO)0.6(CoO2)0.8(Fe2O3)0.1,601.4661408,87.16632265,20,0,,https://doi.org/10.1016/S0167-2738(98)00428-7,O+E
(Nd2O3)0.2(SrO)0.6(CoO2)0.8(Fe2O3)0.1,598.4256395,46.98724303,20,0,,https://doi.org/10.1016/S0167-2738(98)00428-7,O+E
(Nd2O3)0.2(SrO)0.6(CoO2)0.8(Fe2O3)0.1,601.3913413,30.07988572,20,0,,https://doi.org/10.1016/S0167-2738(98)00428-7,O+E
(La2O3)0.2(SrO)0.6(CoO2)0.8(Fe2O3)0.1,243.9126986,892.0297547,20,0,,https://doi.org/10.1016/S0167-2738(98)00428-7,O+E
(La2O3)0.2(SrO)0.6(CoO2)0.8(Fe2O3)0.1,305.9054985,777.8859213,20,0,,https://doi.org/10.1016/S0167-2738(98)00428-7,O+E
(La2O3)0.2(SrO)0.6(CoO2)0.8(Fe2O3)0.1,432.8219287,588.230329,20,0,,https://doi.org/10.1016/S0167-2738(98)00428-7,O+E
(La2O3)0.2(SrO)0.6(CoO2)0.8(Fe2O3)0.1,523.0506039,475.7096574,20,0,,https://doi.org/10.1016/S0167-2738(98)00428-7,O+E
(La2O3)0.2(SrO)0.6(CoO2)0.8(Fe2O3)0.1,523.3497491,404.9661017,20,0,,https://doi.org/10.1016/S0167-2738(98)00428-7,O+E
(La2O3)0.2(SrO)0.6(CoO2)0.8(Fe2O3)0.1,444.2760788,351.0281953,20,0,,https://doi.org/10.1016/S0167-2738(98)00428-7,O+E
(La2O3)0.2(SrO)0.6(CoO2)0.8(Fe2O3)0.1,344.5919529,282.6965823,20,0,,https://doi.org/10.1016/S0167-2738(98)00428-7,O+E
(La2O3)0.2(SrO)0.6(CoO2)0.8(Fe2O3)0.1,307.5577261,190.0680179,20,0,,https://doi.org/10.1016/S0167-2738(98)00428-7,O+E
(La2O3)0.2(SrO)0.6(CoO2)0.8(Fe2O3)0.1,268.7381211,141.0943406,20,0,,https://doi.org/10.1016/S0167-2738(98)00428-7,O+E
(La2O3)0.2(SrO)0.6(CoO2)0.8(Fe2O3)0.1,227.7432623,90.42232753,20,0,,https://doi.org/10.1016/S0167-2738(98)00428-7,O+E
(La2O3)0.2(SrO)0.6(CoO2)0.8(Fe2O3)0.1,183.263018,31.33628654,20,0,,https://doi.org/10.1016/S0167-2738(98)00428-7,O+E
(Pr2O3)0.2(SrO)0.6(CoO2)0.8(Fe2O3)0.1,171.4752299,959.5331422,20,0,,https://doi.org/10.1016/S0167-2738(98)00428-7,O+E
(Pr2O3)0.2(SrO)0.6(CoO2)0.8(Fe2O3)0.1,290.172207,706.2996869,20,0,,https://doi.org/10.1016/S0167-2738(98)00428-7,O+E
(Pr2O3)0.2(SrO)0.6(CoO2)0.8(Fe2O3)0.1,405.5137567,539.5527248,20,0,,https://doi.org/10.1016/S0167-2738(98)00428-7,O+E
(Pr2O3)0.2(SrO)0.6(CoO2)0.8(Fe2O3)0.1,506.8468008,427.0407,20,0,,https://doi.org/10.1016/S0167-2738(98)00428-7,O+E
(Pr2O3)0.2(SrO)0.6(CoO2)0.8(Fe2O3)0.1,405.3304439,316.878007,20,0,,https://doi.org/10.1016/S0167-2738(98)00428-7,O+E
(Pr2O3)0.2(SrO)0.6(CoO2)0.8(Fe2O3)0.1,390.1084214,242.6869044,20,0,,https://doi.org/10.1016/S0167-2738(98)00428-7,O+E
(Pr2O3)0.2(SrO)0.6(CoO2)0.8(Fe2O3)0.1,406.9987903,153.2776824,20,0,,https://doi.org/10.1016/S0167-2738(98)00428-7,O+E
(Pr2O3)0.2(SrO)0.6(CoO2)0.8(Fe2O3)0.1,420.1690049,65.95919258,20,0,,https://doi.org/10.1016/S0167-2738(98)00428-7,O+E
(Pr2O3)0.2(SrO)0.6(CoO2)0.8(Fe2O3)0.1,425.6774433,30.1333006,20,0,,https://doi.org/10.1016/S0167-2738(98)00428-7,O+E
(Sm2O3)0.2(SrO)0.6(CoO2)0.8(Fe2O3)0.1,117.1121812,943.100197,20,0,,https://doi.org/10.1016/S0167-2738(98)00428-7,O+E