Composition,Conductivity (S/cm),Temperature (degC),PO2 (%),PH2O (%),Grainsize,Ref,Carrier Type
(La2O3)0.45(SrO)0.1(Mn2O3)0.5,19.85852743,183.1926886,100,0,,https://doi.org/10.1016/S0167-2738(00)00662-7,O+E
(La2O3)0.45(SrO)0.1(Mn2O3)0.5,17.11525452,136.5898832,100,0,,https://doi.org/10.1016/S0167-2738(00)00662-7,O+E
(La2O3)0.45(SrO)0.1(Mn2O3)0.5,10.8661122,122.0700944,100,0,,https://doi.org/10.1016/S0167-2738(00)00662-7,O+E
(La2O3)0.45(SrO)0.1(Mn2O3)0.5,9.368526987,82.88790752,100,0,,https://doi.org/10.1016/S0167-2738(00)00662-7,O+E
(La2O3)0.45(SrO)0.1(Mn2O3)0.5,4.089843497,30.36932483,100,0,,https://doi.org/10.1016/S0167-2738(00)00662-7,O+E
(La2O3)0.45(SrO)0.1(Mn2O3)0.5,86.97131121,800,3.60067E-17,0,,https://doi.org/10.1016/S0167-2738(00)00662-7,O+E
(La2O3)0.45(SrO)0.1(Mn2O3)0.5,104.1717476,800,1.19721E-16,0,,https://doi.org/10.1016/S0167-2738(00)00662-7,O+E
(La2O3)0.45(SrO)0.1(Mn2O3)0.5,94.6409088,800,1.004E-15,0,,https://doi.org/10.1016/S0167-2738(00)00662-7,O+E
(La2O3)0.45(SrO)0.1(Mn2O3)0.5,114.360439,800,7.10897E-15,0,,https://doi.org/10.1016/S0167-2738(00)00662-7,O+E
(La2O3)0.45(SrO)0.1(Mn2O3)0.5,114.4727553,800,2.0526E-14,0,,https://doi.org/10.1016/S0167-2738(00)00662-7,O+E
(La2O3)0.45(SrO)0.1(Mn2O3)0.5,112.1301585,800,5.10102E-14,0,,https://doi.org/10.1016/S0167-2738(00)00662-7,O+E
(La2O3)0.45(SrO)0.1(Mn2O3)0.5,122.6237084,800,5.38531E-11,0,,https://doi.org/10.1016/S0167-2738(00)00662-7,O+E
(La2O3)0.45(SrO)0.1(Mn2O3)0.5,124.4047237,800,0.001079876,0,,https://doi.org/10.1016/S0167-2738(00)00662-7,O+E
(La2O3)0.45(SrO)0.1(Mn2O3)0.5,124.8860792,800,0.101608846,0,,https://doi.org/10.1016/S0167-2738(00)00662-7,O+E
(La2O3)0.45(SrO)0.1(Mn2O3)0.5,122.6557987,800,0.729090758,0,,https://doi.org/10.1016/S0167-2738(00)00662-7,O+E
(La2O3)0.45(SrO)0.1(Mn2O3)0.5,122.9285668,800,9.574825429,0,,https://doi.org/10.1016/S0167-2738(00)00662-7,O+E
(La2O3)0.45(SrO)0.1(Mn2O3)0.5,125.5920673,800,79.70445104,0,,https://doi.org/10.1016/S0167-2738(00)00662-7,O+E
(La2O3)0.45(SrO)0.1(Mn2O3)0.5,109.9888246,1182.833619,20,0,,https://doi.org/10.1111/j.1151-2916.1993.tb03645.x,O+E
(La2O3)0.45(SrO)0.1(Mn2O3)0.5,96.44660385,851.070122,20,0,,https://doi.org/10.1111/j.1151-2916.1993.tb03645.x,O+E
(La2O3)0.45(SrO)0.1(Mn2O3)0.5,95.14862777,698.9579823,20,0,,https://doi.org/10.1111/j.1151-2916.1993.tb03645.x,O+E
(La2O3)0.45(SrO)0.1(Mn2O3)0.5,68.57198284,509.5973448,20,0,,https://doi.org/10.1111/j.1151-2916.1993.tb03645.x,O+E
(La2O3)0.45(SrO)0.1(Mn2O3)0.5,63.51561669,478.9384992,20,0,,https://doi.org/10.1111/j.1151-2916.1993.tb03645.x,O+E
(La2O3)0.45(SrO)0.1(Mn2O3)0.5,44.67821771,321.0328606,20,0,,https://doi.org/10.1111/j.1151-2916.1993.tb03645.x,O+E
(La2O3)0.45(SrO)0.1(Mn2O3)0.5,21.06728229,204.4821623,20,0,,https://doi.org/10.1111/j.1151-2916.1993.tb03645.x,O+E
(La2O3)0.45(SrO)0.1(Cr2O3)0.5,8.188770989,1315.099483,20,0,,https://doi.org/10.1111/j.1151-2916.1993.tb03645.x,O+E
(La2O3)0.45(SrO)0.1(Cr2O3)0.5,8.117644422,1260.728479,20,0,,https://doi.org/10.1111/j.1151-2916.1993.tb03645.x,O+E
(La2O3)0.45(SrO)0.1(Cr2O3)0.5,8.178943895,1185.83111,20,0,,https://doi.org/10.1111/j.1151-2916.1993.tb03645.x,O+E
(La2O3)0.45(SrO)0.1(Cr2O3)0.5,7.686369916,1030.211262,20,0,,https://doi.org/10.1111/j.1151-2916.1993.tb03645.x,O+E
(La2O3)0.45(SrO)0.1(Cr2O3)0.5,7.298259525,930.9703993,20,0,,https://doi.org/10.1111/j.1151-2916.1993.tb03645.x,O+E
(La2O3)0.45(SrO)0.1(Cr2O3)0.5,6.641879432,836.5230317,20,0,,https://doi.org/10.1111/j.1151-2916.1993.tb03645.x,O+E
(La2O3)0.45(SrO)0.1(Cr2O3)0.5,5.833824677,659.4753325,20,0,,https://doi.org/10.1111/j.1151-2916.1993.tb03645.x,O+E
(La2O3)0.45(SrO)0.1(Cr2O3)0.5,5.56969083,622.2076572,20,0,,https://doi.org/10.1111/j.1151-2916.1993.tb03645.x,O+E
(La2O3)0.45(SrO)0.1(Cr2O3)0.5,5.296147725,521.6651848,20,0,,https://doi.org/10.1111/j.1151-2916.1993.tb03645.x,O+E
(La2O3)0.45(SrO)0.1(Cr2O3)0.5,4.337000265,441.3984013,20,0,,https://doi.org/10.1111/j.1151-2916.1993.tb03645.x,O+E
(La2O3)0.45(SrO)0.1(Cr2O3)0.5,3.198153628,327.9931761,20,0,,https://doi.org/10.1111/j.1151-2916.1993.tb03645.x,O+E
(La2O3)0.45(SrO)0.1(V2O3)0.5,0.25,800,1.50487E-12,0,,10.1149/199919.0632PV,E
(La2O3)0.45(SrO)0.1(V2O3)0.5,0.277777778,800,5.95662E-13,0,,10.1149/199919.0632PV,E
(La2O3)0.45(SrO)0.1(V2O3)0.5,0.332125604,800,9.71628E-14,0,,10.1149/199919.0632PV,E
(La2O3)0.45(SrO)0.1(V2O3)0.5,0.921497585,800,2.80221E-15,0,,10.1149/199919.0632PV,E
(La2O3)0.45(SrO)0.1(V2O3)0.5,3.035024155,800,6.64508E-18,0,,10.1149/199919.0632PV,E
(La2O3)0.45(BaO)0.1(Er2O3)0.5,0.000389904,500,100,0.003016993,,https://doi.org/10.1016/0167-2738(94)90327-1,O+H
(La2O3)0.45(BaO)0.1(Er2O3)0.5,0.000200912,500,100,0.052225827,,https://doi.org/10.1016/0167-2738(94)90327-1,O+H
(La2O3)0.45(BaO)0.1(Er2O3)0.5,0.000178708,500,100,0.082098754,,https://doi.org/10.1016/0167-2738(94)90327-1,O+H
(La2O3)0.45(BaO)0.1(Er2O3)0.5,0.000159158,500,100,0.232620637,,https://doi.org/10.1016/0167-2738(94)90327-1,O+H
(La2O3)0.45(BaO)0.1(Er2O3)0.5,0.000147461,500,100,0.712816009,,https://doi.org/10.1016/0167-2738(94)90327-1,O+H
(La2O3)0.45(BaO)0.1(Er2O3)0.5,0.00013133,500,100,2.019710478,,https://doi.org/10.1016/0167-2738(94)90327-1,O+H
(La2O3)0.45(BaO)0.1(Er2O3)0.5,0.001958041,600,100,0.003048724,,https://doi.org/10.1016/0167-2738(94)90327-1,O+H
(La2O3)0.45(BaO)0.1(Er2O3)0.5,0.000932688,600,100,0.056002772,,https://doi.org/10.1016/0167-2738(94)90327-1,O+H
(La2O3)0.45(BaO)0.1(Er2O3)0.5,0.000709146,600,100,0.113742401,,https://doi.org/10.1016/0167-2738(94)90327-1,O+H
(La2O3)0.45(BaO)0.1(Er2O3)0.5,0.000572214,600,100,0.28104527,,https://doi.org/10.1016/0167-2738(94)90327-1,O+H
(La2O3)0.45(BaO)0.1(Er2O3)0.5,0.000461645,600,100,0.641971051,,https://doi.org/10.1016/0167-2738(94)90327-1,O+H
(La2O3)0.45(BaO)0.1(Er2O3)0.5,0.000365428,600,100,2.007992573,,https://doi.org/10.1016/0167-2738(94)90327-1,O+H
(La2O3)0.45(BaO)0.1(Er2O3)0.5,0.006899018,700,100,0.002910386,,https://doi.org/10.1016/0167-2738(94)90327-1,O+E
(La2O3)0.45(BaO)0.1(Er2O3)0.5,0.00335045,700,100,0.045683981,,https://doi.org/10.1016/0167-2738(94)90327-1,O+E
(La2O3)0.45(BaO)0.1(Er2O3)0.5,0.002599697,700,100,0.124554215,,https://doi.org/10.1016/0167-2738(94)90327-1,O+E
(La2O3)0.45(BaO)0.1(Er2O3)0.5,0.001977113,700,100,0.284605562,,https://doi.org/10.1016/0167-2738(94)90327-1,O+E
(La2O3)0.45(BaO)0.1(Er2O3)0.5,0.001563662,700,100,0.589369611,,https://doi.org/10.1016/0167-2738(94)90327-1,O+E
(La2O3)0.45(BaO)0.1(Er2O3)0.5,0.001099998,700,100,1.918595129,,https://doi.org/10.1016/0167-2738(94)90327-1,O+E
(La2O3)0.45(BaO)0.1(Er2O3)0.5,0.015158116,800,100,0.002841044,,https://doi.org/10.1016/0167-2738(94)90327-1,O+E
(La2O3)0.45(BaO)0.1(Er2O3)0.5,0.009147556,800,100,0.063426844,,https://doi.org/10.1016/0167-2738(94)90327-1,O+E
(La2O3)0.45(BaO)0.1(Er2O3)0.5,0.007235847,800,100,0.142079749,,https://doi.org/10.1016/0167-2738(94)90327-1,O+E
(La2O3)0.45(BaO)0.1(Er2O3)0.5,0.005611411,800,100,0.300091582,,https://doi.org/10.1016/0167-2738(94)90327-1,O+E
(La2O3)0.45(BaO)0.1(Er2O3)0.5,0.004267393,800,100,0.672372722,,https://doi.org/10.1016/0167-2738(94)90327-1,O+E
(La2O3)0.45(BaO)0.1(Er2O3)0.5,0.003060773,800,100,1.907463871,,https://doi.org/10.1016/0167-2738(94)90327-1,O+E
(La2O3)0.45(BaO)0.1(Er2O3)0.5,0.022469922,900,100,0.002890911,,https://doi.org/10.1016/0167-2738(94)90327-1,O+E
(La2O3)0.45(BaO)0.1(Er2O3)0.5,0.017169971,900,100,0.060766,,https://doi.org/10.1016/0167-2738(94)90327-1,O+E
(La2O3)0.45(BaO)0.1(Er2O3)0.5,0.015893508,900,100,0.120881231,,https://doi.org/10.1016/0167-2738(94)90327-1,O+E
(La2O3)0.45(BaO)0.1(Er2O3)0.5,0.013077241,900,100,0.276089214,,https://doi.org/10.1016/0167-2738(94)90327-1,O+E
(La2O3)0.45(BaO)0.1(Er2O3)0.5,0.010760005,900,100,0.630579734,,https://doi.org/10.1016/0167-2738(94)90327-1,O+E
(La2O3)0.45(BaO)0.1(Er2O3)0.5,0.00742127,900,100,1.973907702,,https://doi.org/10.1016/0167-2738(94)90327-1,O+E
(La2O3)0.45(BaO)0.1(Er2O3)0.5,0.030785913,1000,100,0.00288574,,https://doi.org/10.1016/0167-2738(94)90327-1,O+E
(La2O3)0.45(BaO)0.1(Er2O3)0.5,0.027528715,1000,100,0.053866933,,https://doi.org/10.1016/0167-2738(94)90327-1,O+E
(La2O3)0.45(BaO)0.1(Er2O3)0.5,0.026511805,1000,100,0.120530058,,https://doi.org/10.1016/0167-2738(94)90327-1,O+E
(La2O3)0.45(BaO)0.1(Er2O3)0.5,0.023600612,1000,100,0.275163957,,https://doi.org/10.1016/0167-2738(94)90327-1,O+E
(La2O3)0.45(BaO)0.1(Er2O3)0.5,0.020599673,1000,100,0.628255538,,https://doi.org/10.1016/0167-2738(94)90327-1,O+E
(La2O3)0.45(BaO)0.1(Er2O3)0.5,0.015370121,1000,100,1.890041804,,https://doi.org/10.1016/0167-2738(94)90327-1,O+E
(La2O3)0.45(BaO)0.1(Er2O3)0.5,0.040553367,1100,100,0.002938364,,https://doi.org/10.1016/0167-2738(94)90327-1,O+E
(La2O3)0.45(BaO)0.1(Er2O3)0.5,0.039245894,1100,100,0.064151327,,https://doi.org/10.1016/0167-2738(94)90327-1,O+E
(La2O3)0.45(BaO)0.1(Er2O3)0.5,0.037794566,1100,100,0.140750542,,https://doi.org/10.1016/0167-2738(94)90327-1,O+E
(La2O3)0.45(BaO)0.1(Er2O3)0.5,0.035690616,1100,100,0.32121844,,https://doi.org/10.1016/0167-2738(94)90327-1,O+E
(La2O3)0.45(BaO)0.1(Er2O3)0.5,0.032393461,1100,100,0.639068317,,https://doi.org/10.1016/0167-2738(94)90327-1,O+E
(La2O3)0.45(BaO)0.1(Er2O3)0.5,0.026669129,1100,100,1.92149558,,https://doi.org/10.1016/0167-2738(94)90327-1,O+E
(La2O3)0.45(BaO)0.1(Er2O3)0.5,0.053415262,1200,100,0.002876713,,https://doi.org/10.1016/0167-2738(94)90327-1,O+E
(La2O3)0.45(BaO)0.1(Er2O3)0.5,0.049691739,1200,100,0.059225367,,https://doi.org/10.1016/0167-2738(94)90327-1,O+E
(La2O3)0.45(BaO)0.1(Er2O3)0.5,0.047868178,1200,100,0.149091527,,https://doi.org/10.1016/0167-2738(94)90327-1,O+E
(La2O3)0.45(BaO)0.1(Er2O3)0.5,0.047004325,1200,100,0.296486821,,https://doi.org/10.1016/0167-2738(94)90327-1,O+E
(La2O3)0.45(BaO)0.1(Er2O3)0.5,0.044382098,1200,100,0.637925179,,https://doi.org/10.1016/0167-2738(94)90327-1,O+E
(La2O3)0.45(BaO)0.1(Er2O3)0.5,0.038007678,1200,100,1.955659916,,https://doi.org/10.1016/0167-2738(94)90327-1,O+E
(La2O3)0.45(BaO)0.1(Er2O3)0.5,0.036534496,1199.455471,100,2,,https://doi.org/10.1016/0167-2738(94)90327-1,O+H
(La2O3)0.45(BaO)0.1(Er2O3)0.5,0.025409112,1103.66255,100,2,,https://doi.org/10.1016/0167-2738(94)90327-1,O+H
(La2O3)0.45(BaO)0.1(Er2O3)0.5,0.014562483,1003.86461,100,2,,https://doi.org/10.1016/0167-2738(94)90327-1,O+H
(La2O3)0.45(BaO)0.1(Er2O3)0.5,0.007181087,904.2516541,100,2,,https://doi.org/10.1016/0167-2738(94)90327-1,O+H
(La2O3)0.45(BaO)0.1(Er2O3)0.5,0.003047797,803.4703461,100,2,,https://doi.org/10.1016/0167-2738(94)90327-1,O+H
(La2O3)0.45(BaO)0.1(Er2O3)0.5,0.001137794,703.9282708,100,2,,https://doi.org/10.1016/0167-2738(94)90327-1,O+H
(La2O3)0.45(BaO)0.1(Er2O3)0.5,0.000390454,600.6141622,100,2,,https://doi.org/10.1016/0167-2738(94)90327-1,O+H
(La2O3)0.45(BaO)0.1(Er2O3)0.5,0.000128603,500.9345781,100,2,,https://doi.org/10.1016/0167-2738(94)90327-1,O+H
(La2O3)0.45(BaO)0.1(Er2O3)0.5,0.002255533,1204.343332,0,2,,https://doi.org/10.1016/0167-2738(94)90327-1,H+E
(La2O3)0.45(BaO)0.1(Er2O3)0.5,0.00150286,1100.748025,0,2,,https://doi.org/10.1016/0167-2738(94)90327-1,H+E
(La2O3)0.45(BaO)0.1(Er2O3)0.5,0.000880249,998.3264959,0,2,,https://doi.org/10.1016/0167-2738(94)90327-1,H+E
(La2O3)0.45(BaO)0.1(Er2O3)0.5,0.000639986,905.0347782,0,2,,https://doi.org/10.1016/0167-2738(94)90327-1,H+E
(La2O3)0.45(BaO)0.1(Er2O3)0.5,0.000486571,802.3128548,0,2,,https://doi.org/10.1016/0167-2738(94)90327-1,H+E
(La2O3)0.45(BaO)0.1(Er2O3)0.5,0.00032539,701.4867691,0,2,,https://doi.org/10.1016/0167-2738(94)90327-1,H+E
(La2O3)0.45(BaO)0.1(Er2O3)0.5,0.000195696,600.3269463,0,2,,https://doi.org/10.1016/0167-2738(94)90327-1,H+E
(La2O3)0.45(BaO)0.1(Er2O3)0.5,0.000118886,500,7.15977E-18,2,,https://doi.org/10.1016/0167-2738(94)90327-1,H
(La2O3)0.45(BaO)0.1(Er2O3)0.5,0.000123684,500,92.72399718,2,,https://doi.org/10.1016/0167-2738(94)90327-1,H
(La2O3)0.45(BaO)0.1(Er2O3)0.5,0.00018555,600,5.3799E-18,2,,https://doi.org/10.1016/0167-2738(94)90327-1,H
(La2O3)0.45(BaO)0.1(Er2O3)0.5,0.000274013,600,0.593375624,2,,https://doi.org/10.1016/0167-2738(94)90327-1,H
(La2O3)0.45(BaO)0.1(Er2O3)0.5,0.000279253,600,1.571370581,2,,https://doi.org/10.1016/0167-2738(94)90327-1,H
(La2O3)0.45(BaO)0.1(Er2O3)0.5,0.000313348,600,13.40344099,2,,https://doi.org/10.1016/0167-2738(94)90327-1,H+E
(La2O3)0.45(BaO)0.1(Er2O3)0.5,0.000365509,600,94.15096594,2,,https://doi.org/10.1016/0167-2738(94)90327-1,H+E
(La2O3)0.45(BaO)0.1(Er2O3)0.5,0.000319091,700,2.25706E-18,2,,https://doi.org/10.1016/0167-2738(94)90327-1,H
(La2O3)0.45(BaO)0.1(Er2O3)0.5,0.00031883,700,1.58199E-17,2,,https://doi.org/10.1016/0167-2738(94)90327-1,H
(La2O3)0.45(BaO)0.1(Er2O3)0.5,0.000539349,700,0.660325617,2,,https://doi.org/10.1016/0167-2738(94)90327-1,H
(La2O3)0.45(BaO)0.1(Er2O3)0.5,0.000629311,700,2.346309424,2,,https://doi.org/10.1016/0167-2738(94)90327-1,H
(La2O3)0.45(BaO)0.1(Er2O3)0.5,0.000808702,700,13.5837557,2,,https://doi.org/10.1016/0167-2738(94)90327-1,H+E
(La2O3)0.45(BaO)0.1(Er2O3)0.5,0.001080147,700,95.59989492,2,,https://doi.org/10.1016/0167-2738(94)90327-1,H+E
(La2O3)0.45(BaO)0.1(Er2O3)0.5,0.000507539,800,4.49125E-18,2,,https://doi.org/10.1016/0167-2738(94)90327-1,H
(La2O3)0.45(BaO)0.1(Er2O3)0.5,0.000478446,800,4.64307E-17,2,,https://doi.org/10.1016/0167-2738(94)90327-1,H
(La2O3)0.45(BaO)0.1(Er2O3)0.5,0.001288358,800,0.606463816,2,,https://doi.org/10.1016/0167-2738(94)90327-1,H+E
(La2O3)0.45(BaO)0.1(Er2O3)0.5,0.001562503,800,2.376577388,2,,https://doi.org/10.1016/0167-2738(94)90327-1,H+E
(La2O3)0.45(BaO)0.1(Er2O3)0.5,0.002127915,800,13.77025104,2,,https://doi.org/10.1016/0167-2738(94)90327-1,H+E
(La2O3)0.45(BaO)0.1(Er2O3)0.5,0.00313087,800,97.04465266,2,,https://doi.org/10.1016/0167-2738(94)90327-1,H+E
(La2O3)0.45(BaO)0.1(Er2O3)0.5,0.000664499,900,1.36123E-16,2,,https://doi.org/10.1016/0167-2738(94)90327-1,H
(La2O3)0.45(BaO)0.1(Er2O3)0.5,0.000664064,900,6.46339E-16,2,,https://doi.org/10.1016/0167-2738(94)90327-1,H
(La2O3)0.45(BaO)0.1(Er2O3)0.5,0.000663548,900,4.10997E-15,2,,https://doi.org/10.1016/0167-2738(94)90327-1,H
(La2O3)0.45(BaO)0.1(Er2O3)0.5,0.002392999,900,0.611779572,2,,https://doi.org/10.1016/0167-2738(94)90327-1,H+E
(La2O3)0.45(BaO)0.1(Er2O3)0.5,0.003660722,900,2.405267133,2,,https://doi.org/10.1016/0167-2738(94)90327-1,H+E
(La2O3)0.45(BaO)0.1(Er2O3)0.5,0.00452549,900,15.34066061,2,,https://doi.org/10.1016/0167-2738(94)90327-1,H+E
(La2O3)0.45(BaO)0.1(Er2O3)0.5,0.006788316,900,119.1997382,2,,https://doi.org/10.1016/0167-2738(94)90327-1,H+E
(La2O3)0.45(BaO)0.1(Er2O3)0.5,0.000869785,1000,7.39937E-15,2,,https://doi.org/10.1016/0167-2738(94)90327-1,H
(La2O3)0.45(BaO)0.1(Er2O3)0.5,0.000886017,1000,5.71817E-14,2,,https://doi.org/10.1016/0167-2738(94)90327-1,H
(La2O3)0.45(BaO)0.1(Er2O3)0.5,0.000868399,1000,3.29787E-13,2,,https://doi.org/10.1016/0167-2738(94)90327-1,H
(La2O3)0.45(BaO)0.1(Er2O3)0.5,0.005188897,1000,0.618489837,2,,https://doi.org/10.1016/0167-2738(94)90327-1,H+E
(La2O3)0.45(BaO)0.1(Er2O3)0.5,0.006669133,1000,2.42568808,2,,https://doi.org/10.1016/0167-2738(94)90327-1,H+E
(La2O3)0.45(BaO)0.1(Er2O3)0.5,0.010200523,1000,14.07782268,2,,https://doi.org/10.1016/0167-2738(94)90327-1,H+E
(La2O3)0.45(BaO)0.1(Er2O3)0.5,0.015007749,1000,109.3574287,2,,https://doi.org/10.1016/0167-2738(94)90327-1,H+E
(La2O3)0.45(BaO)0.1(Er2O3)0.5,0.001463988,1100,4.90415E-13,2,,https://doi.org/10.1016/0167-2738(94)90327-1,H
(La2O3)0.45(BaO)0.1(Er2O3)0.5,0.001462791,1100,3.43736E-12,2,,https://doi.org/10.1016/0167-2738(94)90327-1,H
(La2O3)0.45(BaO)0.1(Er2O3)0.5,0.001434172,1100,9.09781E-12,2,,https://doi.org/10.1016/0167-2738(94)90327-1,H
(La2O3)0.45(BaO)0.1(Er2O3)0.5,0.008749837,1100,0.512819286,2,,https://doi.org/10.1016/0167-2738(94)90327-1,H+E
(La2O3)0.45(BaO)0.1(Er2O3)0.5,0.011688678,1100,2.444948476,2,,https://doi.org/10.1016/0167-2738(94)90327-1,H+E
(La2O3)0.45(BaO)0.1(Er2O3)0.5,0.017534661,1100,15.63633101,2,,https://doi.org/10.1016/0167-2738(94)90327-1,H+E
(La2O3)0.45(BaO)0.1(Er2O3)0.5,0.025799322,1100,110.1956898,2,,https://doi.org/10.1016/0167-2738(94)90327-1,H+E
(La2O3)0.45(BaO)0.1(Er2O3)0.5,0.00219529,1200,8.30347E-12,2,,https://doi.org/10.1016/0167-2738(94)90327-1,H
(La2O3)0.45(BaO)0.1(Er2O3)0.5,0.00211049,1200,4.34345E-11,2,,https://doi.org/10.1016/0167-2738(94)90327-1,H
(La2O3)0.45(BaO)0.1(Er2O3)0.5,0.002108591,1200,3.69881E-10,2,,https://doi.org/10.1016/0167-2738(94)90327-1,H
(La2O3)0.45(BaO)0.1(Er2O3)0.5,0.01288446,1200,0.515624029,2,,https://doi.org/10.1016/0167-2738(94)90327-1,H+E
(La2O3)0.45(BaO)0.1(Er2O3)0.5,0.017212011,1200,2.458320538,2,,https://doi.org/10.1016/0167-2738(94)90327-1,H+E
(La2O3)0.45(BaO)0.1(Er2O3)0.5,0.024841325,1200,14.25554175,2,,https://doi.org/10.1016/0167-2738(94)90327-1,H+E
(La2O3)0.45(BaO)0.1(Er2O3)0.5,0.037988904,1200,122.1283399,2,,https://doi.org/10.1016/0167-2738(94)90327-1,H+E
(La2O3)0.45(SrO)0.1(Sc2O3)0.5,0.014365768,903.6220391,0,1.9,,https://doi.org/10.1016/j.electacta.2014.01.113,O+H
(La2O3)0.45(SrO)0.1(Sc2O3)0.5,0.009155191,803.8143261,0,1.9,,https://doi.org/10.1016/j.electacta.2014.01.113,O+H
(La2O3)0.45(SrO)0.1(Sc2O3)0.5,0.007112239,701.8293515,0,1.9,,https://doi.org/10.1016/j.electacta.2014.01.113,O+H
(La2O3)0.45(SrO)0.1(Sc2O3)0.5,0.006408596,603.1503067,0,1.9,,https://doi.org/10.1016/j.electacta.2014.01.113,H
(La2O3)0.45(SrO)0.1(Sc2O3)0.5,0.005504176,550.1268012,0,1.9,,https://doi.org/10.1016/j.electacta.2014.01.113,H
(La2O3)0.45(SrO)0.1(Sc2O3)0.5,0.003873907,498.4382174,0,1.9,,https://doi.org/10.1016/j.electacta.2014.01.113,H
(La2O3)0.45(SrO)0.1(Sc2O3)0.5,0.00202309,450.1012658,0,1.9,,https://doi.org/10.1016/j.electacta.2014.01.113,H
(La2O3)0.45(SrO)0.1(Sc2O3)0.5,0.001055954,401.4391972,0,1.9,,https://doi.org/10.1016/j.electacta.2014.01.113,H
(La2O3)0.45(SrO)0.1(Sc2O3)0.5,0.000451356,349.6158038,0,1.9,,https://doi.org/10.1016/j.electacta.2014.01.113,H
(La2O3)0.45(SrO)0.1(Sc2O3)0.5,0.000166115,300.8322451,0,1.9,,https://doi.org/10.1016/j.electacta.2014.01.113,H
(La2O3)0.45(SrO)0.1(Sc2O3)0.5,3.90422E-05,251.0825688,0,1.9,,https://doi.org/10.1016/j.electacta.2014.01.113,H
(La2O3)0.45(SrO)0.1(In2O3)0.5,0.013672268,910.9378238,0,1.9,,https://doi.org/10.1016/j.electacta.2014.01.113,O+H
(La2O3)0.45(SrO)0.1(In2O3)0.5,0.008289898,806.8676749,0,1.9,,https://doi.org/10.1016/j.electacta.2014.01.113,O+H
(La2O3)0.45(SrO)0.1(In2O3)0.5,0.004117594,704.3310522,0,1.9,,https://doi.org/10.1016/j.electacta.2014.01.113,O+H
(La2O3)0.45(SrO)0.1(In2O3)0.5,0.002043431,603.1503067,0,1.9,,https://doi.org/10.1016/j.electacta.2014.01.113,H
(La2O3)0.45(SrO)0.1(In2O3)0.5,0.001589173,551.9097473,0,1.9,,https://doi.org/10.1016/j.electacta.2014.01.113,H
(La2O3)0.45(SrO)0.1(In2O3)0.5,0.001235494,501.5762712,0,1.9,,https://doi.org/10.1016/j.electacta.2014.01.113,H
(La2O3)0.45(SrO)0.1(In2O3)0.5,0.000827039,450.1012658,0,1.9,,https://doi.org/10.1016/j.electacta.2014.01.113,H
(La2O3)0.45(SrO)0.1(In2O3)0.5,0.000611206,400.2469063,0,1.9,,https://doi.org/10.1016/j.electacta.2014.01.113,H
(La2O3)0.45(SrO)0.1(In2O3)0.5,0.000261338,351.6582832,0,1.9,,https://doi.org/10.1016/j.electacta.2014.01.113,H
(La2O3)0.45(SrO)0.1(In2O3)0.5,8.28329E-05,299.9689067,0,1.9,,https://doi.org/10.1016/j.electacta.2014.01.113,H
(La2O3)0.45(SrO)0.1(Y2O3)0.5,0.001023952,701.8293515,0,1.9,,https://doi.org/10.1016/j.electacta.2014.01.113,H
(La2O3)0.45(SrO)0.1(Y2O3)0.5,0.000508266,605.170638,0,1.9,,https://doi.org/10.1016/j.electacta.2014.01.113,H
(La2O3)0.45(SrO)0.1(Y2O3)0.5,0.000323949,550.1268012,0,1.9,,https://doi.org/10.1016/j.electacta.2014.01.113,H
(La2O3)0.45(SrO)0.1(Y2O3)0.5,0.00020645,500.0040595,0,1.9,,https://doi.org/10.1016/j.electacta.2014.01.113,H
(La2O3)0.45(SrO)0.1(Y2O3)0.5,0.000113321,452.8576874,0,1.9,,https://doi.org/10.1016/j.electacta.2014.01.113,H
(La2O3)0.45(SrO)0.1(Y2O3)0.5,5.35461E-05,402.6357185,0,1.9,,https://doi.org/10.1016/j.electacta.2014.01.113,H
(La2O3)0.45(SrO)0.1(Y2O3)0.5,2.52794E-05,350.6353712,0,1.9,,https://doi.org/10.1016/j.electacta.2014.01.113,H
(La2O3)0.45(SrO)0.1(Y2O3)0.5,7.62486E-06,299.9689067,0,1.9,,https://doi.org/10.1016/j.electacta.2014.01.113,O
(La2O3)0.45(SrO)0.1(Al2O3)0.5,0.002284128,899.9979466,0,1.9,,https://doi.org/10.1016/j.electacta.2014.01.113,O