Composition,Conductivity (S/cm),Temperature (degC),PO2 (%),PH2O (%),Grainsize,Ref,Carrier Type
(SrO)1(Mn2O3)0.25(NbO2)0.5,1.226947693,900.5023177,21,0,, 10.1039/B204248G,O+E
(SrO)1(Mn2O3)0.25(NbO2)0.5,1.118330138,850.0781325,21,0,, 10.1039/B204248G,O+E
(SrO)1(Mn2O3)0.25(NbO2)0.5,0.989523894,800.8255034,21,0,, 10.1039/B204248G,O+E
(SrO)1(Mn2O3)0.25(NbO2)0.5,0.880458749,750.4367004,21,0,, 10.1039/B204248G,O+E
(SrO)1(Mn2O3)0.25(NbO2)0.5,0.772077298,700.5297267,21,0,, 10.1039/B204248G,O+E
(SrO)1(Mn2O3)0.25(NbO2)0.5,0.652244199,650.5486433,21,0,, 10.1039/B204248G,O+E
(SrO)1(Mn2O3)0.25(NbO2)0.5,0.545022525,600.324309,21,0,, 10.1039/B204248G,O+E
(SrO)1(Mn2O3)0.25(NbO2)0.5,0.063555926,900.5023177,0,2.3,, 10.1039/B204248G,O+E
(SrO)1(Mn2O3)0.25(NbO2)0.5,0.05631577,850.0781325,0,2.3,, 10.1039/B204248G,O+E
(SrO)1(Mn2O3)0.25(NbO2)0.5,0.0452644,800.3298987,0,2.3,, 10.1039/B204248G,O+E
(SrO)1(Mn2O3)0.25(NbO2)0.5,0.03913443,750.4367004,0,2.3,, 10.1039/B204248G,O+E
(SrO)1(Mn2O3)0.25(NbO2)0.5,0.03250804,700.5297267,0,2.3,, 10.1039/B204248G,O+E
(SrO)1(Mn2O3)0.25(NbO2)0.5,0.026024516,650.1820238,0,2.3,, 10.1039/B204248G,O+E
(SrO)1(Mn2O3)0.25(NbO2)0.5,0.018132365,600.324309,0,2.3,, 10.1039/B204248G,O+E
(SrO)1(Mn2O3)0.25(NbO2)0.5,0.031445256,899.91046,0,0,, 10.1039/B204248G,O+E
(SrO)1(Mn2O3)0.25(NbO2)0.5,0.02321936,850.6207555,0,0,, 10.1039/B204248G,O+E
(SrO)1(Mn2O3)0.25(NbO2)0.5,0.017193994,800.3298987,0,0,, 10.1039/B204248G,O+E
(SrO)1(Mn2O3)0.25(NbO2)0.5,0.012755545,750.4367004,0,0,, 10.1039/B204248G,O+E
(SrO)1(Mn2O3)0.25(NbO2)0.5,0.009113198,700.5297267,0,0,, 10.1039/B204248G,O+E
(SrO)1(Mn2O3)0.25(NbO2)0.5,0.006990049,650.5486433,0,0,, 10.1039/B204248G,O+E
(SrO)1(Mn2O3)0.25(NbO2)0.5,0.004872193,600.324309,0,0,, 10.1039/B204248G,O+E
(SrO)1(V2O3)0.25(TiO2)0.5,7.10E+03,25,21,0,,https://doi.org/10.1016/S0167-2738(01)00870-0,E
(SrO)1(V2O3)0.25(TiO2)0.5,9.70E-01,800,0,0,,https://doi.org/10.1016/S0167-2738(01)00870-0,E
(SrO)0.6(Y2O3)0.2(V2O3)0.5,47.81894607,1057.027771,21,0,,https://doi.org/10.1016/j.ssi.2013.06.002,E
(SrO)0.6(Y2O3)0.2(V2O3)0.5,51.49439974,1011.104202,21,0,,https://doi.org/10.1016/j.ssi.2013.06.002,E
(SrO)0.6(Y2O3)0.2(V2O3)0.5,55.45107883,968.2461118,21,0,,https://doi.org/10.1016/j.ssi.2013.06.002,E
(SrO)0.6(Y2O3)0.2(V2O3)0.5,61.57012,922.9118948,21,0,,https://doi.org/10.1016/j.ssi.2013.06.002,E
(SrO)0.6(Y2O3)0.2(V2O3)0.5,67.15370832,867.6644599,21,0,,https://doi.org/10.1016/j.ssi.2013.06.002,E
(SrO)0.6(Y2O3)0.2(V2O3)0.5,74.56413773,819.6692818,21,0,,https://doi.org/10.1016/j.ssi.2013.06.002,E
(SrO)0.6(Y2O3)0.2(V2O3)0.5,83.85520017,773.7291285,21,0,,https://doi.org/10.1016/j.ssi.2013.06.002,E
(SrO)0.6(Y2O3)0.2(V2O3)0.5,91.69380607,727.4922422,21,0,,https://doi.org/10.1016/j.ssi.2013.06.002,E
(SrO)0.6(Y2O3)0.2(V2O3)0.5,104.7128548,681.5236307,21,0,,https://doi.org/10.1016/j.ssi.2013.06.002,E
(SrO)0.6(Y2O3)0.2(V2O3)0.5,117.7605974,634.9180441,21,0,,https://doi.org/10.1016/j.ssi.2013.06.002,E
(SrO)0.6(Y2O3)0.2(V2O3)0.5,134.4807121,585.7420803,21,0,,https://doi.org/10.1016/j.ssi.2013.06.002,E
(SrO)0.6(Y2O3)0.2(V2O3)0.5,151.6247159,536.3659832,21,0,,https://doi.org/10.1016/j.ssi.2013.06.002,E
(SrO)0.6(Y2O3)0.2(V2O3)0.5,170.5179096,486.7617995,21,0,,https://doi.org/10.1016/j.ssi.2013.06.002,E
(SrO)0.6(Y2O3)0.2(V2O3)0.5,197.7333845,440.0063771,21,0,,https://doi.org/10.1016/j.ssi.2013.06.002,E
(Nd2O3)0.4(CaO)0.2(Al2O3)0.5,0.008966094,950,1.00E-03,0,,10.1149/1.2059351,O
(La2O3)0.4(SrO)0.2(Mn2O3)0.5,205.1498404,1038.217318,100,0,,https://doi.org/10.1016/S0167-2738(00)00662-7,O+E
(La2O3)0.4(SrO)0.2(Mn2O3)0.5,205.4158756,882.9576182,100,0,,https://doi.org/10.1016/S0167-2738(00)00662-7,O+E
(La2O3)0.4(SrO)0.2(Mn2O3)0.5,190.6829947,744.8405805,100,0,,https://doi.org/10.1016/S0167-2738(00)00662-7,O+E
(La2O3)0.4(SrO)0.2(Mn2O3)0.5,183.9218649,612.7658342,100,0,,https://doi.org/10.1016/S0167-2738(00)00662-7,O+E
(La2O3)0.4(SrO)0.2(Mn2O3)0.5,170.7938101,510.9314228,100,0,,https://doi.org/10.1016/S0167-2738(00)00662-7,O+E
(La2O3)0.4(SrO)0.2(Mn2O3)0.5,164.6159499,460.3621605,100,0,,https://doi.org/10.1016/S0167-2738(00)00662-7,O+E
(La2O3)0.4(SrO)0.2(Mn2O3)0.5,158.6909285,409.0458451,100,0,,https://doi.org/10.1016/S0167-2738(00)00662-7,O+E
(La2O3)0.4(SrO)0.2(Mn2O3)0.5,147.3092641,358.4863081,100,0,,https://doi.org/10.1016/S0167-2738(00)00662-7,O+E
(La2O3)0.4(SrO)0.2(Mn2O3)0.5,126.7719457,309.781457,100,0,,https://doi.org/10.1016/S0167-2738(00)00662-7,O+E
(La2O3)0.4(SrO)0.2(Mn2O3)0.5,117.7885649,251.5311665,100,0,,https://doi.org/10.1016/S0167-2738(00)00662-7,O+E
(La2O3)0.4(SrO)0.2(Mn2O3)0.5,101.4232296,207.1441256,100,0,,https://doi.org/10.1016/S0167-2738(00)00662-7,O+E
(La2O3)0.4(SrO)0.2(Mn2O3)0.5,87.41254331,155.7947044,100,0,,https://doi.org/10.1016/S0167-2738(00)00662-7,O+E
(La2O3)0.4(SrO)0.2(Mn2O3)0.5,72.62568905,99.56115826,100,0,,https://doi.org/10.1016/S0167-2738(00)00662-7,O+E
(La2O3)0.4(SrO)0.2(Mn2O3)0.5,51.8509415,54.71795457,100,0,,https://doi.org/10.1016/S0167-2738(00)00662-7,O+E
(La2O3)0.4(SrO)0.2(Mn2O3)0.5,65.40065808,20.97582767,100,0,,https://doi.org/10.1016/S0167-2738(00)00662-7,O+E
(La2O3)0.4(SrO)0.2(Mn2O3)0.5,77.37629164,800,1.64741E-16,0,,https://doi.org/10.1016/S0167-2738(00)00662-7,O+E
(La2O3)0.4(SrO)0.2(Mn2O3)0.5,146.1940825,800,2.34285E-14,0,,https://doi.org/10.1016/S0167-2738(00)00662-7,O+E
(La2O3)0.4(SrO)0.2(Mn2O3)0.5,175.7493101,800,3.51705E-13,0,,https://doi.org/10.1016/S0167-2738(00)00662-7,O+E
(La2O3)0.4(SrO)0.2(Mn2O3)0.5,176.3108915,800,7.05768E-11,0,,https://doi.org/10.1016/S0167-2738(00)00662-7,O+E
(La2O3)0.4(SrO)0.2(Mn2O3)0.5,190.2702009,800,0.001207342,0,,https://doi.org/10.1016/S0167-2738(00)00662-7,O+E
(La2O3)0.4(SrO)0.2(Mn2O3)0.5,188.1522367,800,0.025013661,0,,https://doi.org/10.1016/S0167-2738(00)00662-7,O+E
(La2O3)0.4(SrO)0.2(Mn2O3)0.5,185.8577755,800,0.097923367,0,,https://doi.org/10.1016/S0167-2738(00)00662-7,O+E
(La2O3)0.4(SrO)0.2(Mn2O3)0.5,186.0824081,800,0.816356497,0,,https://doi.org/10.1016/S0167-2738(00)00662-7,O+E
(La2O3)0.4(SrO)0.2(Mn2O3)0.5,183.9323535,800,12.49269634,0,,https://doi.org/10.1016/S0167-2738(00)00662-7,O+E
(La2O3)0.4(SrO)0.2(Mn2O3)0.5,181.702073,800,89.6409102,0,,https://doi.org/10.1016/S0167-2738(00)00662-7,O+E
(La2O3)0.4(SrO)0.2(Mn2O3)0.5,133.0558632,1182.054215,20,0,,https://doi.org/10.1111/j.1151-2916.1993.tb03645.x,O+E
(La2O3)0.4(SrO)0.2(Mn2O3)0.5,125.4637933,1101.131225,20,0,,https://doi.org/10.1111/j.1151-2916.1993.tb03645.x,O+E
(La2O3)0.4(SrO)0.2(Mn2O3)0.5,137.0059936,980.9292942,20,0,,https://doi.org/10.1111/j.1151-2916.1993.tb03645.x,O+E
(La2O3)0.4(SrO)0.2(Mn2O3)0.5,130.747965,896.0352477,20,0,,https://doi.org/10.1111/j.1151-2916.1993.tb03645.x,O+E
(La2O3)0.4(SrO)0.2(Mn2O3)0.5,127.216276,794.7226561,20,0,,https://doi.org/10.1111/j.1151-2916.1993.tb03645.x,O+E
(La2O3)0.4(SrO)0.2(Mn2O3)0.5,133.280231,703.8487236,20,0,,https://doi.org/10.1111/j.1151-2916.1993.tb03645.x,O+E
(La2O3)0.4(SrO)0.2(Mn2O3)0.5,126.1134158,608.9431825,20,0,,https://doi.org/10.1111/j.1151-2916.1993.tb03645.x,O+E
(La2O3)0.4(SrO)0.2(Mn2O3)0.5,124.3940244,488.1622063,20,0,,https://doi.org/10.1111/j.1151-2916.1993.tb03645.x,O+E
(La2O3)0.4(SrO)0.2(Mn2O3)0.5,105.4830467,409.867346,20,0,,https://doi.org/10.1111/j.1151-2916.1993.tb03645.x,O+E
(La2O3)0.4(SrO)0.2(Mn2O3)0.5,104.0561923,339.4521522,20,0,,https://doi.org/10.1111/j.1151-2916.1993.tb03645.x,O+E
(La2O3)0.4(SrO)0.2(Mn2O3)0.5,80.26498425,199.9619988,20,0,,https://doi.org/10.1111/j.1151-2916.1993.tb03645.x,O+E
(La2O3)0.4(SrO)0.2(Mn2O3)0.5,13.71219303,1000,1.23454E-13,0,,https://doi.org/10.1111/j.1151-2916.1993.tb03645.x,O+E
(La2O3)0.4(SrO)0.2(Mn2O3)0.5,22.113327,1000,9.57681E-13,0,,https://doi.org/10.1111/j.1151-2916.1993.tb03645.x,O+E
(La2O3)0.4(SrO)0.2(Mn2O3)0.5,30.85376562,1000,3.02074E-12,0,,https://doi.org/10.1111/j.1151-2916.1993.tb03645.x,O+E
(La2O3)0.4(SrO)0.2(Mn2O3)0.5,34.64357016,1000,6.53592E-12,0,,https://doi.org/10.1111/j.1151-2916.1993.tb03645.x,O+E
(La2O3)0.4(SrO)0.2(Mn2O3)0.5,38.89888089,1000,2.70515E-11,0,,https://doi.org/10.1111/j.1151-2916.1993.tb03645.x,O+E
(La2O3)0.4(SrO)0.2(Mn2O3)0.5,67.44205851,1000,7.40339E-11,0,,https://doi.org/10.1111/j.1151-2916.1993.tb03645.x,O+E
(La2O3)0.4(SrO)0.2(Mn2O3)0.5,96.86425041,1000,1.43333E-09,0,,https://doi.org/10.1111/j.1151-2916.1993.tb03645.x,O+E
(La2O3)0.4(SrO)0.2(Mn2O3)0.5,111.9583795,1000,3.52509E-09,0,,https://doi.org/10.1111/j.1151-2916.1993.tb03645.x,O+E
(La2O3)0.4(SrO)0.2(Mn2O3)0.5,120.3658105,1000,2.15839E-08,0,,https://doi.org/10.1111/j.1151-2916.1993.tb03645.x,O+E
(La2O3)0.4(SrO)0.2(Mn2O3)0.5,137.1219303,1000,1.49973E-07,0,,https://doi.org/10.1111/j.1151-2916.1993.tb03645.x,O+E
(La2O3)0.4(SrO)0.2(Mn2O3)0.5,137.1219303,1000,3.71859E-07,0,,https://doi.org/10.1111/j.1151-2916.1993.tb03645.x,O+E
(La2O3)0.4(SrO)0.2(Mn2O3)0.5,139.1221326,1000,8.09193E-07,0,,https://doi.org/10.1111/j.1151-2916.1993.tb03645.x,O+E
(La2O3)0.4(SrO)0.2(Mn2O3)0.5,145.2995104,1000,0.043589659,0,,https://doi.org/10.1111/j.1151-2916.1993.tb03645.x,O+E
(La2O3)0.4(SrO)0.2(Mn2O3)0.5,153.9647792,1000,3.141384462,0,,https://doi.org/10.1111/j.1151-2916.1993.tb03645.x,O+E
(La2O3)0.4(SrO)0.2(Mn2O3)0.5,151.7511795,1000,91.67779324,0,,https://doi.org/10.1111/j.1151-2916.1993.tb03645.x,O+E
(La2O3)0.4(SrO)0.2(Mn2O3)0.5,16.55266496,1100,1.68944E-11,0,,https://doi.org/10.1111/j.1151-2916.1993.tb03645.x,O+E
(La2O3)0.4(SrO)0.2(Mn2O3)0.5,27.47854359,1100,5.27697E-11,0,,https://doi.org/10.1111/j.1151-2916.1993.tb03645.x,O+E
(La2O3)0.4(SrO)0.2(Mn2O3)0.5,33.65456838,1100,2.47446E-10,0,,https://doi.org/10.1111/j.1151-2916.1993.tb03645.x,O+E
(La2O3)0.4(SrO)0.2(Mn2O3)0.5,53.4936075,1100,6.80528E-10,0,,https://doi.org/10.1111/j.1151-2916.1993.tb03645.x,O+E
(La2O3)0.4(SrO)0.2(Mn2O3)0.5,58.3495802,1100,1.67914E-09,0,,https://doi.org/10.1111/j.1151-2916.1993.tb03645.x,O+E
(La2O3)0.4(SrO)0.2(Mn2O3)0.5,69.42396822,1100,1.50862E-08,0,,https://doi.org/10.1111/j.1151-2916.1993.tb03645.x,O+E
(La2O3)0.4(SrO)0.2(Mn2O3)0.5,95.47160284,1100,8.00166E-08,0,,https://doi.org/10.1111/j.1151-2916.1993.tb03645.x,O+E
(La2O3)0.4(SrO)0.2(Mn2O3)0.5,110.3487189,1100,3.76438E-07,0,,https://doi.org/10.1111/j.1151-2916.1993.tb03645.x,O+E
(La2O3)0.4(SrO)0.2(Mn2O3)0.5,125.7103597,1100,1.41244E-05,0,,https://doi.org/10.1111/j.1151-2916.1993.tb03645.x,O+E
(La2O3)0.4(SrO)0.2(Mn2O3)0.5,125.7103597,1100,0.017723951,0,,https://doi.org/10.1111/j.1151-2916.1993.tb03645.x,O+E
(La2O3)0.4(SrO)0.2(Mn2O3)0.5,127.5441011,1100,0.987836551,0,,https://doi.org/10.1111/j.1151-2916.1993.tb03645.x,O+E
(La2O3)0.4(SrO)0.2(Mn2O3)0.5,127.5441011,1100,7.872153292,0,,https://doi.org/10.1111/j.1151-2916.1993.tb03645.x,O+E
(La2O3)0.4(SrO)0.2(Mn2O3)0.5,127.5441011,1100,42.50968713,0,,https://doi.org/10.1111/j.1151-2916.1993.tb03645.x,O+E
(La2O3)0.4(SrO)0.2(Mn2O3)0.5,127.5441011,1100,105.4032752,0,,https://doi.org/10.1111/j.1151-2916.1993.tb03645.x,O+E
(La2O3)0.4(SrO)0.2(Mn2O3)0.5,29.97295487,1200,1.53125E-09,0,,https://doi.org/10.1111/j.1151-2916.1993.tb03645.x,O+E
(La2O3)0.4(SrO)0.2(Mn2O3)0.5,44.31399257,1200,4.81419E-09,0,,https://doi.org/10.1111/j.1151-2916.1993.tb03645.x,O+E
(La2O3)0.4(SrO)0.2(Mn2O3)0.5,55.86886021,1200,4.90838E-08,0,,https://doi.org/10.1111/j.1151-2916.1993.tb03645.x,O+E
(La2O3)0.4(SrO)0.2(Mn2O3)0.5,69.42396822,1200,1.7742E-07,0,,https://doi.org/10.1111/j.1151-2916.1993.tb03645.x,O+E
(La2O3)0.4(SrO)0.2(Mn2O3)0.5,77.95139639,1200,5.66515E-07,0,,https://doi.org/10.1111/j.1151-2916.1993.tb03645.x,O+E
(La2O3)0.4(SrO)0.2(Mn2O3)0.5,87.52625866,1200,1.58884E-06,0,,https://doi.org/10.1111/j.1151-2916.1993.tb03645.x,O+E
(La2O3)0.4(SrO)0.2(Mn2O3)0.5,107.1984928,1200,1.62257E-05,0,,https://doi.org/10.1111/j.1151-2916.1993.tb03645.x,O+E
(La2O3)0.4(SrO)0.2(Mn2O3)0.5,120.3658105,1200,0.001510779,0,,https://doi.org/10.1111/j.1151-2916.1993.tb03645.x,O+E
(La2O3)0.4(SrO)0.2(Mn2O3)0.5,120.3658105,1200,0.020228401,0,,https://doi.org/10.1111/j.1151-2916.1993.tb03645.x,O+E
(La2O3)0.4(SrO)0.2(Mn2O3)0.5,120.3658105,1200,1.462569408,0,,https://doi.org/10.1111/j.1151-2916.1993.tb03645.x,O+E
(La2O3)0.4(SrO)0.2(Mn2O3)0.5,120.3658105,1200,25.38359353,0,,https://doi.org/10.1111/j.1151-2916.1993.tb03645.x,O+E
(La2O3)0.4(SrO)0.2(Mn2O3)0.5,118.6352737,1200,105.8341295,0,,https://doi.org/10.1111/j.1151-2916.1993.tb03645.x,O+E
(La2O3)0.4(SrO)0.2(Cr2O3)0.5,14.05923942,1325.094286,20,0,,https://doi.org/10.1111/j.1151-2916.1993.tb03645.x,O+E
(La2O3)0.4(SrO)0.2(Cr2O3)0.5,13.85546716,1278.950648,20,0,,https://doi.org/10.1111/j.1151-2916.1993.tb03645.x,O+E
(La2O3)0.4(SrO)0.2(Cr2O3)0.5,13.42373068,1194.221082,20,0,,https://doi.org/10.1111/j.1151-2916.1993.tb03645.x,O+E
(La2O3)0.4(SrO)0.2(Cr2O3)0.5,13.41820857,1018.073677,20,0,,https://doi.org/10.1111/j.1151-2916.1993.tb03645.x,O+E
(La2O3)0.4(SrO)0.2(Cr2O3)0.5,13.32527385,920.6298737,20,0,,https://doi.org/10.1111/j.1151-2916.1993.tb03645.x,O+E
(La2O3)0.4(SrO)0.2(Cr2O3)0.5,12.57142024,836.8402843,20,0,,https://doi.org/10.1111/j.1151-2916.1993.tb03645.x,O+E
(La2O3)0.4(SrO)0.2(Cr2O3)0.5,10.63085707,653.2605257,20,0,,https://doi.org/10.1111/j.1151-2916.1993.tb03645.x,O+E
(La2O3)0.4(SrO)0.2(Cr2O3)0.5,10.54261704,622.4141744,20,0,,https://doi.org/10.1111/j.1151-2916.1993.tb03645.x,O+E
(La2O3)0.4(SrO)0.2(Cr2O3)0.5,9.609975519,519.4748432,20,0,,https://doi.org/10.1111/j.1151-2916.1993.tb03645.x,O+E
(La2O3)0.4(SrO)0.2(Cr2O3)0.5,7.224850536,435.853494,20,0,,https://doi.org/10.1111/j.1151-2916.1993.tb03645.x,O+E
(La2O3)0.4(SrO)0.2(Cr2O3)0.5,4.845049004,325.3790688,20,0,,https://doi.org/10.1111/j.1151-2916.1993.tb03645.x,O+E
(La2O3)0.4(SrO)0.2(V2O3)0.5,103.6304348,800,1.56675E-12,0,,10.1149/199919.0632PV,E
(La2O3)0.4(SrO)0.2(V2O3)0.5,106.0736715,800,6.20155E-13,0,,10.1149/199919.0632PV,E
(La2O3)0.4(SrO)0.2(V2O3)0.5,107.0954106,800,9.71628E-14,0,,10.1149/199919.0632PV,E
(La2O3)0.4(SrO)0.2(V2O3)0.5,110.1002415,800,2.80221E-15,0,,10.1149/199919.0632PV,E
(La2O3)0.4(SrO)0.2(V2O3)0.5,111.7306763,800,6.64508E-18,0,,10.1149/199919.0632PV,E
(La2O3)0.4(SrO)0.2(V2O3)0.5,100.6578711,198.9071431,0,0,,10.1149/199919.0632PV,E
(La2O3)0.4(SrO)0.2(V2O3)0.5,95.7256354,299.5074954,0,0,,10.1149/199919.0632PV,E
(La2O3)0.4(SrO)0.2(V2O3)0.5,80.26746234,400.2228853,0,0,,10.1149/199919.0632PV,E
(La2O3)0.4(SrO)0.2(V2O3)0.5,75.33522666,500.8232376,0,0,,10.1149/199919.0632PV,E
(La2O3)0.4(SrO)0.2(V2O3)0.5,70.40299098,601.4235899,0,0,,10.1149/199919.0632PV,E
(La2O3)0.4(SrO)0.2(V2O3)0.5,62.83927095,702.0527016,0,0,,10.1149/199919.0632PV,E
(La2O3)0.4(SrO)0.2(V2O3)0.5,49.99820254,798.3679045,0,0,,10.1149/199919.0632PV,E
(La2O3)0.4(SrO)0.2(V2O3)0.5,45.06596685,898.9682568,0,0,,10.1149/199919.0632PV,E
(La2O3)0.4(SrO)0.2(V2O3)0.5,1.20E+02,25,21,0,,https://doi.org/10.1016/S0167-2738(01)00870-0,E
(La2O3)0.4(SrO)0.2(V2O3)0.5,4.50E+01,800,0,0,,https://doi.org/10.1016/S0167-2738(01)00870-0,E
(La2O3)0.4(SrO)0.2(V2O3)0.5,41.90347115,800,1.53501E-12,0,,https://doi.org/10.1016/S0167-2738(01)00870-0,E
(La2O3)0.4(SrO)0.2(V2O3)0.5,43.20062202,800,5.99708E-13,0,,https://doi.org/10.1016/S0167-2738(01)00870-0,E
(La2O3)0.4(SrO)0.2(V2O3)0.5,43.64253813,800,1.00425E-13,0,,https://doi.org/10.1016/S0167-2738(01)00870-0,E
(La2O3)0.4(SrO)0.2(V2O3)0.5,45.37639608,800,2.92631E-15,0,,https://doi.org/10.1016/S0167-2738(01)00870-0,E
(La2O3)0.4(SrO)0.2(V2O3)0.5,46.30842389,800,6.46219E-18,0,,https://doi.org/10.1016/S0167-2738(01)00870-0,E
(La2O3)0.4(SrO)0.2(V2O3)0.5,99.36132,199.09852,0,0,,https://doi.org/10.1016/S0167-2738(01)00870-0,E
(La2O3)0.4(SrO)0.2(V2O3)0.5,94.69745,298.74172,0,0,,https://doi.org/10.1016/S0167-2738(01)00870-0,E
(La2O3)0.4(SrO)0.2(V2O3)0.5,79.75849,399.44121,0,0,,https://doi.org/10.1016/S0167-2738(01)00870-0,E
(La2O3)0.4(SrO)0.2(V2O3)0.5,75.96909,498.20417,0,0,,https://doi.org/10.1016/S0167-2738(01)00870-0,E
(La2O3)0.4(SrO)0.2(V2O3)0.5,70.43075,598.90366,0,0,,https://doi.org/10.1016/S0167-2738(01)00870-0,E
(La2O3)0.4(SrO)0.2(V2O3)0.5,62.34184,698.54686,0,0,,https://doi.org/10.1016/S0167-2738(01)00870-0,E
(La2O3)0.4(SrO)0.2(V2O3)0.5,50.39068,799.24635,0,0,,https://doi.org/10.1016/S0167-2738(01)00870-0,E
(La2O3)0.4(SrO)0.2(V2O3)0.5,45.7268,899.94584,0,0,,https://doi.org/10.1016/S0167-2738(01)00870-0,E
(SrO)0.7(Y2O3)0.15(V2O3)0.5,128.7686077,1057.027771,21,0,,https://doi.org/10.1016/j.ssi.2013.06.002,E
(SrO)0.7(Y2O3)0.15(V2O3)0.5,140.8056235,1011.104202,21,0,,https://doi.org/10.1016/j.ssi.2013.06.002,E
(SrO)0.7(Y2O3)0.15(V2O3)0.5,160.7940596,962.1397252,21,0,,https://doi.org/10.1016/j.ssi.2013.06.002,E
(SrO)0.7(Y2O3)0.15(V2O3)0.5,180.833963,917.2409762,21,0,,https://doi.org/10.1016/j.ssi.2013.06.002,E
(SrO)0.7(Y2O3)0.15(V2O3)0.5,209.6959294,867.6644599,21,0,,https://doi.org/10.1016/j.ssi.2013.06.002,E
(SrO)0.7(Y2O3)0.15(V2O3)0.5,235.8250852,822.0527706,21,0,,https://doi.org/10.1016/j.ssi.2013.06.002,E
(SrO)0.7(Y2O3)0.15(V2O3)0.5,273.463898,773.7291285,21,0,,https://doi.org/10.1016/j.ssi.2013.06.002,E
(SrO)0.7(Y2O3)0.15(V2O3)0.5,312.2841916,727.4922422,21,0,,https://doi.org/10.1016/j.ssi.2013.06.002,E
(SrO)0.7(Y2O3)0.15(V2O3)0.5,367.7223272,680.0135719,21,0,,https://doi.org/10.1016/j.ssi.2013.06.002,E
(SrO)0.7(Y2O3)0.15(V2O3)0.5,413.5423582,631.9175937,21,0,,https://doi.org/10.1016/j.ssi.2013.06.002,E
(SrO)0.7(Y2O3)0.15(V2O3)0.5,486.9451,585.7420803,21,0,,https://doi.org/10.1016/j.ssi.2013.06.002,E
(SrO)0.7(Y2O3)0.15(V2O3)0.5,556.0834885,535.0638306,21,0,,https://doi.org/10.1016/j.ssi.2013.06.002,E
(SrO)0.7(Y2O3)0.15(V2O3)0.5,683.8329136,485.613679,21,0,,https://doi.org/10.1016/j.ssi.2013.06.002,E
(SrO)0.7(Y2O3)0.15(V2O3)0.5,780.9262115,435.9785038,21,0,,https://doi.org/10.1016/j.ssi.2013.06.002,E
(SrO)0.8(Y2O3)0.1(V2O3)0.5,167.9267953,1057.027771,21,0,,https://doi.org/10.1016/j.ssi.2013.06.002,E
(SrO)0.8(Y2O3)0.1(V2O3)0.5,188.8556578,1007.829568,21,0,,https://doi.org/10.1016/j.ssi.2013.06.002,E
(SrO)0.8(Y2O3)0.1(V2O3)0.5,215.665164,962.1397252,21,0,,https://doi.org/10.1016/j.ssi.2013.06.002,E
(SrO)0.8(Y2O3)0.1(V2O3)0.5,250.0863569,914.4256375,21,0,,https://doi.org/10.1016/j.ssi.2013.06.002,E
(SrO)0.8(Y2O3)0.1(V2O3)0.5,281.9681143,870.2621843,21,0,,https://doi.org/10.1016/j.ssi.2013.06.002,E
(SrO)0.8(Y2O3)0.1(V2O3)0.5,326.1369459,824.4466806,21,0,,https://doi.org/10.1016/j.ssi.2013.06.002,E
(SrO)0.8(Y2O3)0.1(V2O3)0.5,367.7223272,773.7291285,21,0,,https://doi.org/10.1016/j.ssi.2013.06.002,E
(SrO)0.8(Y2O3)0.1(V2O3)0.5,419.9233264,727.4922422,21,0,,https://doi.org/10.1016/j.ssi.2013.06.002,E
(SrO)0.8(Y2O3)0.1(V2O3)0.5,486.9451,683.34203,21,0,,https://doi.org/10.1016/j.ssi.2013.06.002,E
(SrO)0.8(Y2O3)0.1(V2O3)0.5,571.9130415,634.9180441,21,0,,https://doi.org/10.1016/j.ssi.2013.06.002,E
(SrO)0.8(Y2O3)0.1(V2O3)0.5,653.1155139,585.7420803,21,0,,https://doi.org/10.1016/j.ssi.2013.06.002,E
(SrO)0.8(Y2O3)0.1(V2O3)0.5,769.041896,536.3659832,21,0,,https://doi.org/10.1016/j.ssi.2013.06.002,E
(SrO)0.8(Y2O3)0.1(V2O3)0.5,917.191455,486.7617995,21,0,,https://doi.org/10.1016/j.ssi.2013.06.002,E
(SrO)0.8(Y2O3)0.1(V2O3)0.5,236.2272531,900,3.51601E-19,0,,https://doi.org/10.1016/j.ssi.2013.06.002,E
(SrO)0.8(Y2O3)0.1(V2O3)0.5,244.2361807,900,1.24871E-18,0,,https://doi.org/10.1016/j.ssi.2013.06.002,E
(SrO)0.8(Y2O3)0.1(V2O3)0.5,249.2642526,900,6.83691E-18,0,,https://doi.org/10.1016/j.ssi.2013.06.002,E
(SrO)0.8(Y2O3)0.1(V2O3)0.5,254.8707518,900,1.58738E-16,0,,https://doi.org/10.1016/j.ssi.2013.06.002,E
(SrO)0.8(Y2O3)0.1(V2O3)0.5,254.8707518,900,2.28681E-16,0,,https://doi.org/10.1016/j.ssi.2013.06.002,E
(SrO)0.8(Y2O3)0.1(V2O3)0.5,257.7151799,900,9.79896E-16,0,,https://doi.org/10.1016/j.ssi.2013.06.002,E
(SrO)0.8(Y2O3)0.1(V2O3)0.5,257.7151799,900,3.70476E-15,0,,https://doi.org/10.1016/j.ssi.2013.06.002,E
(SrO)0.8(Y2O3)0.1(V2O3)0.5,252.0519142,900,1.67691E-13,0,,https://doi.org/10.1016/j.ssi.2013.06.002,E
(SrO)0.8(Y2O3)0.1(V2O3)0.5,249.2642526,900,3.48025E-13,0,,https://doi.org/10.1016/j.ssi.2013.06.002,E
(SrO)0.8(Y2O3)0.1(V2O3)0.5,402.1425246,700,1.2376E-23,0,,https://doi.org/10.1016/j.ssi.2013.06.002,E
(SrO)0.8(Y2O3)0.1(V2O3)0.5,402.1425246,700,1.56661E-23,0,,https://doi.org/10.1016/j.ssi.2013.06.002,E
(SrO)0.8(Y2O3)0.1(V2O3)0.5,406.6492728,700,4.11453E-23,0,,https://doi.org/10.1016/j.ssi.2013.06.002,E