Composition,Conductivity (S/cm),Temperature (degC),PO2 (%),PH2O (%),Grainsize,Ref,Carrier Type
(BaO)0.1(SrO)0.9(CeO2)0.5(ZrO2)0.35(Y2O3)0.05(Sm2O3)0.025,0.004140886,700.7166231,0,1.9,5.8,https://doi.org/10.1016/j.ijhydene.2016.02.073,H
(BaO)0.1(SrO)0.9(CeO2)0.5(ZrO2)0.35(Y2O3)0.05(Sm2O3)0.025,0.002762727,649.0222851,0,1.9,5.8,https://doi.org/10.1016/j.ijhydene.2016.02.073,H
(BaO)0.1(SrO)0.9(CeO2)0.5(ZrO2)0.35(Y2O3)0.05(Sm2O3)0.025,0.001842683,599.6017218,0,1.9,5.8,https://doi.org/10.1016/j.ijhydene.2016.02.073,H
(BaO)0.1(SrO)0.9(CeO2)0.5(ZrO2)0.35(Y2O3)0.05(Sm2O3)0.025,0.001082487,549.9904885,0,1.9,5.8,https://doi.org/10.1016/j.ijhydene.2016.02.073,H
(BaO)0.1(SrO)0.9(CeO2)0.5(ZrO2)0.35(Y2O3)0.05(Sm2O3)0.025,0.000572005,501.097838,0,1.9,5.8,https://doi.org/10.1016/j.ijhydene.2016.02.073,H
(BaO)0.1(SrO)0.9(CeO2)0.5(ZrO2)0.35(Y2O3)0.05(Sm2O3)0.025,0.000289439,449.5723706,0,1.9,5.8,https://doi.org/10.1016/j.ijhydene.2016.02.073,H
(BaO)0.1(SrO)0.9(CeO2)0.5(ZrO2)0.35(Y2O3)0.05(Sm2O3)0.025,0.000137367,399.2313582,0,1.9,5.8,https://doi.org/10.1016/j.ijhydene.2016.02.073,H
(BaO)0.1(SrO)0.9(CeO2)0.5(ZrO2)0.35(Y2O3)0.05(Sm2O3)0.025,6.24287E-05,349.4346711,0,1.9,5.8,https://doi.org/10.1016/j.ijhydene.2016.02.073,H
(BaO)0.1(SrO)0.9(CeO2)0.5(ZrO2)0.35(Y2O3)0.05(Sm2O3)0.025,1.70892E-05,300.1660292,0,1.9,5.8,https://doi.org/10.1016/j.ijhydene.2016.02.073,H
(BaO)0.3(SrO)0.7(CeO2)0.5(ZrO2)0.35(Y2O3)0.05(Sm2O3)0.025,0.00658125,700.5943456,0,1.9,5.8,https://doi.org/10.1016/j.ijhydene.2016.02.073,H
(BaO)0.3(SrO)0.7(CeO2)0.5(ZrO2)0.35(Y2O3)0.05(Sm2O3)0.025,0.004677259,648.8976968,0,1.9,5.8,https://doi.org/10.1016/j.ijhydene.2016.02.073,H
(BaO)0.3(SrO)0.7(CeO2)0.5(ZrO2)0.35(Y2O3)0.05(Sm2O3)0.025,0.003253841,599.4812045,0,1.9,5.8,https://doi.org/10.1016/j.ijhydene.2016.02.073,H
(BaO)0.3(SrO)0.7(CeO2)0.5(ZrO2)0.35(Y2O3)0.05(Sm2O3)0.025,0.003168661,549.7880159,0,1.9,5.8,https://doi.org/10.1016/j.ijhydene.2016.02.073,H
(BaO)0.3(SrO)0.7(CeO2)0.5(ZrO2)0.35(Y2O3)0.05(Sm2O3)0.025,0.002201006,498.5765605,0,1.9,5.8,https://doi.org/10.1016/j.ijhydene.2016.02.073,H
(BaO)0.3(SrO)0.7(CeO2)0.5(ZrO2)0.35(Y2O3)0.05(Sm2O3)0.025,0.001212163,450.3691313,0,1.9,5.8,https://doi.org/10.1016/j.ijhydene.2016.02.073,H
(BaO)0.3(SrO)0.7(CeO2)0.5(ZrO2)0.35(Y2O3)0.05(Sm2O3)0.025,0.000456328,399.9501187,0,1.9,5.8,https://doi.org/10.1016/j.ijhydene.2016.02.073,H
(BaO)0.3(SrO)0.7(CeO2)0.5(ZrO2)0.35(Y2O3)0.05(Sm2O3)0.025,0.000130506,350.8484377,0,1.9,5.8,https://doi.org/10.1016/j.ijhydene.2016.02.073,H
(BaO)0.3(SrO)0.7(CeO2)0.5(ZrO2)0.35(Y2O3)0.05(Sm2O3)0.025,4.50239E-05,300.0774432,0,1.9,5.8,https://doi.org/10.1016/j.ijhydene.2016.02.073,H
(BaO)0.5(SrO)0.5(CeO2)0.5(ZrO2)0.35(Y2O3)0.05(Sm2O3)0.025,0.007626607,700.5554455,0,1.9,5.8,https://doi.org/10.1016/j.ijhydene.2016.02.073,H
(BaO)0.5(SrO)0.5(CeO2)0.5(ZrO2)0.35(Y2O3)0.05(Sm2O3)0.025,0.005420189,648.8628181,0,1.9,5.8,https://doi.org/10.1016/j.ijhydene.2016.02.073,H
(BaO)0.5(SrO)0.5(CeO2)0.5(ZrO2)0.35(Y2O3)0.05(Sm2O3)0.025,0.003393819,599.4722787,0,1.9,5.8,https://doi.org/10.1016/j.ijhydene.2016.02.073,H
(BaO)0.5(SrO)0.5(CeO2)0.5(ZrO2)0.35(Y2O3)0.05(Sm2O3)0.025,0.00195186,548.5792269,0,1.9,5.8,https://doi.org/10.1016/j.ijhydene.2016.02.073,H
(BaO)0.5(SrO)0.5(CeO2)0.5(ZrO2)0.35(Y2O3)0.05(Sm2O3)0.025,0.001122046,499.8351429,0,1.9,5.8,https://doi.org/10.1016/j.ijhydene.2016.02.073,H
(BaO)0.5(SrO)0.5(CeO2)0.5(ZrO2)0.35(Y2O3)0.05(Sm2O3)0.025,0.000644334,449.4560679,0,1.9,5.8,https://doi.org/10.1016/j.ijhydene.2016.02.073,H
(BaO)0.5(SrO)0.5(CeO2)0.5(ZrO2)0.35(Y2O3)0.05(Sm2O3)0.025,0.000305891,400.8726975,0,1.9,5.8,https://doi.org/10.1016/j.ijhydene.2016.02.073,H
(BaO)0.5(SrO)0.5(CeO2)0.5(ZrO2)0.35(Y2O3)0.05(Sm2O3)0.025,0.000122516,350.8552831,0,1.9,5.8,https://doi.org/10.1016/j.ijhydene.2016.02.073,H
(BaO)0.5(SrO)0.5(CeO2)0.5(ZrO2)0.35(Y2O3)0.05(Sm2O3)0.025,4.69679E-05,300.7058393,0,1.9,5.8,https://doi.org/10.1016/j.ijhydene.2016.02.073,H
(BaO)0.5(SrO)0.5(Sc2O3)0.0875(NbO2)0.025(CoO2)0.8,26.84281353,300,20,0,,https://doi.org/10.1016/j.apenergy.2019.01.094,H+E
(BaO)0.5(SrO)0.5(Sc2O3)0.0875(NbO2)0.025(CoO2)0.8,29.33819394,324.9457701,20,0,,https://doi.org/10.1016/j.apenergy.2019.01.094,H+E
(BaO)0.5(SrO)0.5(Sc2O3)0.0875(NbO2)0.025(CoO2)0.8,30.72226239,350.9761388,20,0,,https://doi.org/10.1016/j.apenergy.2019.01.094,H+E
(BaO)0.5(SrO)0.5(Sc2O3)0.0875(NbO2)0.025(CoO2)0.8,32.29171688,375.9219089,20,0,,https://doi.org/10.1016/j.apenergy.2019.01.094,H+E
(BaO)0.5(SrO)0.5(Sc2O3)0.0875(NbO2)0.025(CoO2)0.8,33.12043063,400.867679,20,0,,https://doi.org/10.1016/j.apenergy.2019.01.094,H+E
(BaO)0.5(SrO)0.5(Sc2O3)0.0875(NbO2)0.025(CoO2)0.8,32.00490078,424.7288503,20,0,,https://doi.org/10.1016/j.apenergy.2019.01.094,H+E
(BaO)0.5(SrO)0.5(Sc2O3)0.0875(NbO2)0.025(CoO2)0.8,31.44472564,449.6746204,20,0,,https://doi.org/10.1016/j.apenergy.2019.01.094,H+E
(BaO)0.5(SrO)0.5(Sc2O3)0.0875(NbO2)0.025(CoO2)0.8,30.51418012,474.6203905,20,0,,https://doi.org/10.1016/j.apenergy.2019.01.094,E
(BaO)0.5(SrO)0.5(Sc2O3)0.0875(NbO2)0.025(CoO2)0.8,29.21306339,500.6507592,20,0,,https://doi.org/10.1016/j.apenergy.2019.01.094,E
(BaO)0.5(SrO)0.5(Sc2O3)0.0875(NbO2)0.025(CoO2)0.8,27.91234836,524.5119306,20,0,,https://doi.org/10.1016/j.apenergy.2019.01.094,E
(BaO)0.5(SrO)0.5(Sc2O3)0.0875(NbO2)0.025(CoO2)0.8,27.16678718,550.5422993,20,0,,https://doi.org/10.1016/j.apenergy.2019.01.094,E
(BaO)0.5(SrO)0.5(Sc2O3)0.0875(NbO2)0.025(CoO2)0.8,26.32903511,574.4034707,20,0,,https://doi.org/10.1016/j.apenergy.2019.01.094,E
(BaO)0.5(SrO)0.5(Sc2O3)0.0875(NbO2)0.025(CoO2)0.8,24.84273319,600.4338395,20,0,,https://doi.org/10.1016/j.apenergy.2019.01.094,E
(BaO)0.5(SrO)0.5(Sc2O3)0.0875(NbO2)0.025(CoO2)0.8,24.09737286,625.3796095,20,0,,https://doi.org/10.1016/j.apenergy.2019.01.094,E
(BaO)0.5(SrO)0.5(Sc2O3)0.0875(NbO2)0.025(CoO2)0.8,23.16682735,650.3253796,20,0,,https://doi.org/10.1016/j.apenergy.2019.01.094,E
(BaO)0.5(SrO)0.5(Sc2O3)0.0875(NbO2)0.025(CoO2)0.8,22.79163654,676.3557484,20,0,,https://doi.org/10.1016/j.apenergy.2019.01.094,E
(BaO)0.5(SrO)0.5(Sc2O3)0.0875(NbO2)0.025(CoO2)0.8,22.23166225,700.2169197,20,0,,https://doi.org/10.1016/j.apenergy.2019.01.094,E
(BaO)0.5(SrO)0.5(Sc2O3)0.0875(NbO2)0.025(CoO2)0.8,21.39350848,726.2472885,20,0,,https://doi.org/10.1016/j.apenergy.2019.01.094,E
(BaO)0.5(SrO)0.5(Sc2O3)0.0875(NbO2)0.025(CoO2)0.8,21.29649715,750.1084599,20,0,,https://doi.org/10.1016/j.apenergy.2019.01.094,E
(BaO)0.5(SrO)0.5(Sc2O3)0.0875(NbO2)0.025(CoO2)0.8,20.73632201,775.0542299,20,0,,https://doi.org/10.1016/j.apenergy.2019.01.094,E
(BaO)0.5(SrO)0.5(Sc2O3)0.0875(NbO2)0.025(CoO2)0.8,19.34281353,800,20,0,,https://doi.org/10.1016/j.apenergy.2019.01.094,E
(BaO)0.5(SrO)0.5(Sc2O3)0.0875(NbO2)0.025(CoO2)0.8,23.87985057,300,20,3,,https://doi.org/10.1016/j.apenergy.2019.01.094,H+E
(BaO)0.5(SrO)0.5(Sc2O3)0.0875(NbO2)0.025(CoO2)0.8,25.63388768,328.1995662,20,3,,https://doi.org/10.1016/j.apenergy.2019.01.094,H+E
(BaO)0.5(SrO)0.5(Sc2O3)0.0875(NbO2)0.025(CoO2)0.8,26.46320398,349.8915401,20,3,,https://doi.org/10.1016/j.apenergy.2019.01.094,H+E
(BaO)0.5(SrO)0.5(Sc2O3)0.0875(NbO2)0.025(CoO2)0.8,27.38451032,374.8373102,20,3,,https://doi.org/10.1016/j.apenergy.2019.01.094,H+E
(BaO)0.5(SrO)0.5(Sc2O3)0.0875(NbO2)0.025(CoO2)0.8,28.49100185,399.7830803,20,3,,https://doi.org/10.1016/j.apenergy.2019.01.094,H+E
(BaO)0.5(SrO)0.5(Sc2O3)0.0875(NbO2)0.025(CoO2)0.8,28.67156745,424.7288503,20,3,,https://doi.org/10.1016/j.apenergy.2019.01.094,H+E
(BaO)0.5(SrO)0.5(Sc2O3)0.0875(NbO2)0.025(CoO2)0.8,29.03731823,449.6746204,20,3,,https://doi.org/10.1016/j.apenergy.2019.01.094,E
(BaO)0.5(SrO)0.5(Sc2O3)0.0875(NbO2)0.025(CoO2)0.8,28.2919579,474.6203905,20,3,,https://doi.org/10.1016/j.apenergy.2019.01.094,E
(BaO)0.5(SrO)0.5(Sc2O3)0.0875(NbO2)0.025(CoO2)0.8,27.17602635,500.6507592,20,3,,https://doi.org/10.1016/j.apenergy.2019.01.094,E
(BaO)0.5(SrO)0.5(Sc2O3)0.0875(NbO2)0.025(CoO2)0.8,26.05989395,527.7657267,20,3,,https://doi.org/10.1016/j.apenergy.2019.01.094,E
(BaO)0.5(SrO)0.5(Sc2O3)0.0875(NbO2)0.025(CoO2)0.8,25.59331566,547.2885033,20,3,,https://doi.org/10.1016/j.apenergy.2019.01.094,E
(BaO)0.5(SrO)0.5(Sc2O3)0.0875(NbO2)0.025(CoO2)0.8,24.56977585,574.4034707,20,3,,https://doi.org/10.1016/j.apenergy.2019.01.094,E
(BaO)0.5(SrO)0.5(Sc2O3)0.0875(NbO2)0.025(CoO2)0.8,23.54643689,600.4338395,20,3,,https://doi.org/10.1016/j.apenergy.2019.01.094,E
(BaO)0.5(SrO)0.5(Sc2O3)0.0875(NbO2)0.025(CoO2)0.8,22.89366916,625.3796095,20,3,,https://doi.org/10.1016/j.apenergy.2019.01.094,E
(BaO)0.5(SrO)0.5(Sc2O3)0.0875(NbO2)0.025(CoO2)0.8,21.96312364,650.3253796,20,3,,https://doi.org/10.1016/j.apenergy.2019.01.094,E
(BaO)0.5(SrO)0.5(Sc2O3)0.0875(NbO2)0.025(CoO2)0.8,21.03217643,677.4403471,20,3,,https://doi.org/10.1016/j.apenergy.2019.01.094,E
(BaO)0.5(SrO)0.5(Sc2O3)0.0875(NbO2)0.025(CoO2)0.8,20.93536595,700.2169197,20,3,,https://doi.org/10.1016/j.apenergy.2019.01.094,E
(BaO)0.5(SrO)0.5(Sc2O3)0.0875(NbO2)0.025(CoO2)0.8,20.65296859,725.1626898,20,3,,https://doi.org/10.1016/j.apenergy.2019.01.094,E
(BaO)0.5(SrO)0.5(Sc2O3)0.0875(NbO2)0.025(CoO2)0.8,20.18538604,750.1084599,20,3,,https://doi.org/10.1016/j.apenergy.2019.01.094,E
(BaO)0.5(SrO)0.5(Sc2O3)0.0875(NbO2)0.025(CoO2)0.8,19.16204708,776.1388286,20,3,,https://doi.org/10.1016/j.apenergy.2019.01.094,E
(BaO)0.5(SrO)0.5(Sc2O3)0.0875(NbO2)0.025(CoO2)0.8,18.4168876,800,20,3,,https://doi.org/10.1016/j.apenergy.2019.01.094,E
(La2O3)0.26125(SrO)0.4275(Mn2O3)0.25(Cr2O3)0.25(Ti2O3)0.25,4,950,1E-16,0,,https://doi.org/10.1016/j.ssi.2013.01.005,E
(CeO2)0.1(La2O3)0.325(SrO)0.25(Cr2O3)0.25(Mn2O3)0.25,0.830062026,789.5368464,0,3,0.5,https://doi.org/10.1016/j.ssi.2011.02.004,H+E
(CeO2)0.1(La2O3)0.325(SrO)0.25(Cr2O3)0.25(Mn2O3)0.25,0.398421273,685.2430166,0,3,0.5,https://doi.org/10.1016/j.ssi.2011.02.004,H+E
(CeO2)0.1(La2O3)0.325(SrO)0.25(Cr2O3)0.25(Mn2O3)0.25,0.205951983,599.5282091,0,3,0.5,https://doi.org/10.1016/j.ssi.2011.02.004,H+E
(CeO2)0.1(La2O3)0.325(SrO)0.25(Cr2O3)0.25(Mn2O3)0.25,0.091999764,504.6044605,0,3,0.5,https://doi.org/10.1016/j.ssi.2011.02.004,H+E
(CeO2)0.1(La2O3)0.325(SrO)0.25(Cr2O3)0.25(Mn2O3)0.25,0.035475451,406.0320243,0,3,0.5,https://doi.org/10.1016/j.ssi.2011.02.004,H+E
(CeO2)0.1(La2O3)0.325(SrO)0.25(Cr2O3)0.25(Mn2O3)0.25,0.008464346,306.850026,0,3,0.5,https://doi.org/10.1016/j.ssi.2011.02.004,H+E
(CeO2)0.1(La2O3)0.325(SrO)0.25(Cr2O3)0.25(Mn2O3)0.25,0.730360555,810.960396,0,3,0.5,https://doi.org/10.1016/j.ssi.2011.02.004,H+E
(CeO2)0.1(La2O3)0.325(SrO)0.25(Cr2O3)0.25(Mn2O3)0.25,0.386807062,709.2357797,0,3,0.5,https://doi.org/10.1016/j.ssi.2011.02.004,H+E
(CeO2)0.1(La2O3)0.325(SrO)0.25(Cr2O3)0.25(Mn2O3)0.25,0.206500656,609.9744334,0,3,0.5,https://doi.org/10.1016/j.ssi.2011.02.004,H+E
(CeO2)0.1(La2O3)0.325(SrO)0.25(Cr2O3)0.25(Mn2O3)0.25,0.091593723,509,0,3,0.5,https://doi.org/10.1016/j.ssi.2011.02.004,H+E
(CeO2)0.1(La2O3)0.325(SrO)0.25(Cr2O3)0.25(Mn2O3)0.25,0.031523465,410.4384169,0,3,0.5,https://doi.org/10.1016/j.ssi.2011.02.004,H+E
(CeO2)0.1(La2O3)0.325(SrO)0.25(Cr2O3)0.25(Mn2O3)0.25,0.007429796,311.3920145,0,3,0.5,https://doi.org/10.1016/j.ssi.2011.02.004,H+E
(CeO2)0.25(La2O3)0.25(SrO)0.25(Cr2O3)0.25(Mn2O3)0.25,1.060995274,917.5176164,0,3,0.5,https://doi.org/10.1016/j.ssi.2011.02.004,H+E
(CeO2)0.25(La2O3)0.25(SrO)0.25(Cr2O3)0.25(Mn2O3)0.25,0.559457686,810.5312747,0,3,0.5,https://doi.org/10.1016/j.ssi.2011.02.004,H+E
(CeO2)0.25(La2O3)0.25(SrO)0.25(Cr2O3)0.25(Mn2O3)0.25,0.31866493,702.9315386,0,3,0.5,https://doi.org/10.1016/j.ssi.2011.02.004,H+E
(CeO2)0.25(La2O3)0.25(SrO)0.25(Cr2O3)0.25(Mn2O3)0.25,0.1376563,614.4837873,0,3,0.5,https://doi.org/10.1016/j.ssi.2011.02.004,H+E
(CeO2)0.25(La2O3)0.25(SrO)0.25(Cr2O3)0.25(Mn2O3)0.25,0.061093349,512.5349071,0,3,0.5,https://doi.org/10.1016/j.ssi.2011.02.004,H+E
(CeO2)0.25(La2O3)0.25(SrO)0.25(Cr2O3)0.25(Mn2O3)0.25,0.018491269,410.0972734,0,3,0.5,https://doi.org/10.1016/j.ssi.2011.02.004,H+E
(CeO2)0.25(La2O3)0.25(SrO)0.25(Cr2O3)0.25(Mn2O3)0.25,0.004373954,308.9998937,0,3,0.5,https://doi.org/10.1016/j.ssi.2011.02.004,H+E
(CeO2)0.375(La2O3)0.1875(SrO)0.25(Cr2O3)0.25(Mn2O3)0.25,0.754662645,925.8611476,0,3,0.5,https://doi.org/10.1016/j.ssi.2011.02.004,H+E
(CeO2)0.375(La2O3)0.1875(SrO)0.25(Cr2O3)0.25(Mn2O3)0.25,0.598011819,810.6385232,0,3,0.5,https://doi.org/10.1016/j.ssi.2011.02.004,H+E
(CeO2)0.375(La2O3)0.1875(SrO)0.25(Cr2O3)0.25(Mn2O3)0.25,0.195333861,600.185516,0,3,0.5,https://doi.org/10.1016/j.ssi.2011.02.004,H+E
(CeO2)0.375(La2O3)0.1875(SrO)0.25(Cr2O3)0.25(Mn2O3)0.25,0.086530829,501.3121862,0,3,0.5,https://doi.org/10.1016/j.ssi.2011.02.004,H+E
(CeO2)0.375(La2O3)0.1875(SrO)0.25(Cr2O3)0.25(Mn2O3)0.25,0.033697086,410.4810838,0,3,0.5,https://doi.org/10.1016/j.ssi.2011.02.004,H+E
(CeO2)0.375(La2O3)0.1875(SrO)0.25(Cr2O3)0.25(Mn2O3)0.25,0.008614971,302.9680135,0,3,0.5,https://doi.org/10.1016/j.ssi.2011.02.004,H+E
(La2O3)0.36(YbO)0.08(SrO)0.2(Ga2O3)0.4(MgO)0.2,0.117205276,951.1484912,1.00E-03,0,,https://doi.org/10.1016/0167-2738(95)00054-A,O
(La2O3)0.36(YbO)0.08(SrO)0.2(Ga2O3)0.4(MgO)0.2,0.093404996,902.8790615,1.00E-03,0,,https://doi.org/10.1016/0167-2738(95)00054-A,O
(La2O3)0.36(YbO)0.08(SrO)0.2(Ga2O3)0.4(MgO)0.2,0.067336894,845.8130997,1.00E-03,0,,https://doi.org/10.1016/0167-2738(95)00054-A,O
(La2O3)0.36(YbO)0.08(SrO)0.2(Ga2O3)0.4(MgO)0.2,0.046232945,800.8687244,1.00E-03,0,,https://doi.org/10.1016/0167-2738(95)00054-A,O
(La2O3)0.36(YbO)0.08(SrO)0.2(Ga2O3)0.4(MgO)0.2,0.03093658,751.0375007,1.00E-03,0,,https://doi.org/10.1016/0167-2738(95)00054-A,O
(La2O3)0.36(YbO)0.08(SrO)0.2(Ga2O3)0.4(MgO)0.2,0.020685865,699.9698003,1.00E-03,0,,https://doi.org/10.1016/0167-2738(95)00054-A,O
(La2O3)0.36(YbO)0.08(SrO)0.2(Ga2O3)0.4(MgO)0.2,0.012218249,652.1167845,1.00E-03,0,,https://doi.org/10.1016/0167-2738(95)00054-A,O
(La2O3)0.36(YbO)0.08(SrO)0.2(Ga2O3)0.4(MgO)0.2,0.006368723,601.1737056,1.00E-03,0,,https://doi.org/10.1016/0167-2738(95)00054-A,O
(La2O3)0.36(YbO)0.08(SrO)0.2(Ga2O3)0.4(MgO)0.2,0.003079032,550.1754517,1.00E-03,0,,https://doi.org/10.1016/0167-2738(95)00054-A,O
(La2O3)0.36(YbO)0.08(SrO)0.2(Ga2O3)0.4(MgO)0.2,0.001314308,501.2649826,1.00E-03,0,,https://doi.org/10.1016/0167-2738(95)00054-A,O
(La2O3)0.36(YbO)0.08(SrO)0.2(Ga2O3)0.4(MgO)0.2,0.128331519,950,1.99661E-20,0,,https://doi.org/10.1016/0167-2738(95)00054-A,O
(La2O3)0.36(YbO)0.08(SrO)0.2(Ga2O3)0.4(MgO)0.2,0.127513321,950,9.35666E-16,0,,https://doi.org/10.1016/0167-2738(95)00054-A,O
(La2O3)0.36(YbO)0.08(SrO)0.2(Ga2O3)0.4(MgO)0.2,0.123499917,950,2.41282E-11,0,,https://doi.org/10.1016/0167-2738(95)00054-A,O
(La2O3)0.36(YbO)0.08(SrO)0.2(Ga2O3)0.4(MgO)0.2,0.125892541,950,0.003051979,0,,https://doi.org/10.1016/0167-2738(95)00054-A,O
(La2O3)0.36(YbO)0.08(SrO)0.2(Ga2O3)0.4(MgO)0.2,0.130817747,950,0.094414068,0,,https://doi.org/10.1016/0167-2738(95)00054-A,O
(La2O3)0.36(YbO)0.08(SrO)0.2(Ga2O3)0.4(MgO)0.2,0.129983698,950,6.706264305,0,,https://doi.org/10.1016/0167-2738(95)00054-A,O
(La2O3)0.36(YbO)0.08(SrO)0.2(Ga2O3)0.4(MgO)0.2,0.129983698,950,93.72492791,0,,https://doi.org/10.1016/0167-2738(95)00054-A,O
(La2O3)0.36(Nd2O3)0.04(SrO)0.2(Ga2O3)0.4(MgO)0.2,0.300275788,950.3407565,1.00E-03,0,,https://doi.org/10.1016/0167-2738(95)00054-A,O
(La2O3)0.36(Nd2O3)0.04(SrO)0.2(Ga2O3)0.4(MgO)0.2,0.251447377,902.0945505,1.00E-03,0,,https://doi.org/10.1016/0167-2738(95)00054-A,O
(La2O3)0.36(Nd2O3)0.04(SrO)0.2(Ga2O3)0.4(MgO)0.2,0.205208885,847.4946224,1.00E-03,0,,https://doi.org/10.1016/0167-2738(95)00054-A,O
(La2O3)0.36(Nd2O3)0.04(SrO)0.2(Ga2O3)0.4(MgO)0.2,0.134055409,800.1653446,1.00E-03,0,,https://doi.org/10.1016/0167-2738(95)00054-A,O
(La2O3)0.36(Nd2O3)0.04(SrO)0.2(Ga2O3)0.4(MgO)0.2,0.09904049,750.3384051,1.00E-03,0,,https://doi.org/10.1016/0167-2738(95)00054-A,O
(La2O3)0.36(Nd2O3)0.04(SrO)0.2(Ga2O3)0.4(MgO)0.2,0.06788379,699.3252516,1.00E-03,0,,https://doi.org/10.1016/0167-2738(95)00054-A,O
(La2O3)0.36(Nd2O3)0.04(SrO)0.2(Ga2O3)0.4(MgO)0.2,0.042141664,653.2052895,1.00E-03,0,,https://doi.org/10.1016/0167-2738(95)00054-A,O
(La2O3)0.36(Nd2O3)0.04(SrO)0.2(Ga2O3)0.4(MgO)0.2,0.023075572,600.610039,1.00E-03,0,,https://doi.org/10.1016/0167-2738(95)00054-A,O
(La2O3)0.36(Nd2O3)0.04(SrO)0.2(Ga2O3)0.4(MgO)0.2,0.011438594,551.0082573,1.00E-03,0,,https://doi.org/10.1016/0167-2738(95)00054-A,O
(La2O3)0.36(Nd2O3)0.04(SrO)0.2(Ga2O3)0.4(MgO)0.2,0.004644497,499.6473886,1.00E-03,0,,https://doi.org/10.1016/0167-2738(95)00054-A,O
(La2O3)0.36(Sm2O3)0.04(SrO)0.2(Ga2O3)0.4(MgO)0.2,0.271898092,947.4692014,1.00E-03,0,,https://doi.org/10.1016/0167-2738(95)00054-A,O
(La2O3)0.36(Sm2O3)0.04(SrO)0.2(Ga2O3)0.4(MgO)0.2,0.222116607,899.4642927,1.00E-03,0,,https://doi.org/10.1016/0167-2738(95)00054-A,O
(La2O3)0.36(Sm2O3)0.04(SrO)0.2(Ga2O3)0.4(MgO)0.2,0.190519918,847.5480868,1.00E-03,0,,https://doi.org/10.1016/0167-2738(95)00054-A,O
(La2O3)0.36(Sm2O3)0.04(SrO)0.2(Ga2O3)0.4(MgO)0.2,0.127579381,800.1980395,1.00E-03,0,,https://doi.org/10.1016/0167-2738(95)00054-A,O
(La2O3)0.36(Sm2O3)0.04(SrO)0.2(Ga2O3)0.4(MgO)0.2,0.087509088,750.4127316,1.00E-03,0,,https://doi.org/10.1016/0167-2738(95)00054-A,O
(La2O3)0.36(Sm2O3)0.04(SrO)0.2(Ga2O3)0.4(MgO)0.2,0.054324878,699.4460394,1.00E-03,0,,https://doi.org/10.1016/0167-2738(95)00054-A,O
(La2O3)0.36(Sm2O3)0.04(SrO)0.2(Ga2O3)0.4(MgO)0.2,0.035427602,651.5947249,1.00E-03,0,,https://doi.org/10.1016/0167-2738(95)00054-A,O
(La2O3)0.36(Sm2O3)0.04(SrO)0.2(Ga2O3)0.4(MgO)0.2,0.01892941,600.6967096,1.00E-03,0,,https://doi.org/10.1016/0167-2738(95)00054-A,O
(La2O3)0.36(Sm2O3)0.04(SrO)0.2(Ga2O3)0.4(MgO)0.2,0.009383336,551.085365,1.00E-03,0,,https://doi.org/10.1016/0167-2738(95)00054-A,O
(La2O3)0.36(Sm2O3)0.04(SrO)0.2(Ga2O3)0.4(MgO)0.2,0.003449921,498.5685174,1.00E-03,0,,https://doi.org/10.1016/0167-2738(95)00054-A,O
(La2O3)0.36(Gd2O3)0.04(SrO)0.2(Ga2O3)0.4(MgO)0.2,0.197123131,950.7019797,1.00E-03,0,,https://doi.org/10.1016/0167-2738(95)00054-A,O
(La2O3)0.36(Gd2O3)0.04(SrO)0.2(Ga2O3)0.4(MgO)0.2,0.145849438,902.5259019,1.00E-03,0,,https://doi.org/10.1016/0167-2738(95)00054-A,O
(La2O3)0.36(Gd2O3)0.04(SrO)0.2(Ga2O3)0.4(MgO)0.2,0.122012896,847.8689807,1.00E-03,0,,https://doi.org/10.1016/0167-2738(95)00054-A,O
(La2O3)0.36(Gd2O3)0.04(SrO)0.2(Ga2O3)0.4(MgO)0.2,0.090209763,800.4269597,1.00E-03,0,,https://doi.org/10.1016/0167-2738(95)00054-A,O
(La2O3)0.36(Gd2O3)0.04(SrO)0.2(Ga2O3)0.4(MgO)0.2,0.061861401,748.550396,1.00E-03,0,,https://doi.org/10.1016/0167-2738(95)00054-A,O
(La2O3)0.36(Gd2O3)0.04(SrO)0.2(Ga2O3)0.4(MgO)0.2,0.036547822,697.7911771,1.00E-03,0,,https://doi.org/10.1016/0167-2738(95)00054-A,O
(La2O3)0.36(Gd2O3)0.04(SrO)0.2(Ga2O3)0.4(MgO)0.2,0.023846103,653.4854309,1.00E-03,0,,https://doi.org/10.1016/0167-2738(95)00054-A,O
(La2O3)0.36(Gd2O3)0.04(SrO)0.2(Ga2O3)0.4(MgO)0.2,0.013057445,600.8592634,1.00E-03,0,,https://doi.org/10.1016/0167-2738(95)00054-A,O
(La2O3)0.36(Gd2O3)0.04(SrO)0.2(Ga2O3)0.4(MgO)0.2,0.006312771,549.8966218,1.00E-03,0,,https://doi.org/10.1016/0167-2738(95)00054-A,O
(La2O3)0.36(Gd2O3)0.04(SrO)0.2(Ga2O3)0.4(MgO)0.2,0.002501155,499.8592859,1.00E-03,0,,https://doi.org/10.1016/0167-2738(95)00054-A,O
(La2O3)0.36(Y2O3)0.04(SrO)0.2(Ga2O3)0.4(MgO)0.2,0.183057813,953.7382892,1.00E-03,0,,https://doi.org/10.1016/0167-2738(95)00054-A,O
(La2O3)0.36(Y2O3)0.04(SrO)0.2(Ga2O3)0.4(MgO)0.2,0.138871721,908.0634223,1.00E-03,0,,https://doi.org/10.1016/0167-2738(95)00054-A,O
(La2O3)0.36(Y2O3)0.04(SrO)0.2(Ga2O3)0.4(MgO)0.2,0.107833218,850.4517208,1.00E-03,0,,https://doi.org/10.1016/0167-2738(95)00054-A,O
(La2O3)0.36(Y2O3)0.04(SrO)0.2(Ga2O3)0.4(MgO)0.2,0.079686997,798.2317207,1.00E-03,0,,https://doi.org/10.1016/0167-2738(95)00054-A,O
(La2O3)0.36(Y2O3)0.04(SrO)0.2(Ga2O3)0.4(MgO)0.2,0.052018314,748.6540928,1.00E-03,0,,https://doi.org/10.1016/0167-2738(95)00054-A,O
(La2O3)0.36(Y2O3)0.04(SrO)0.2(Ga2O3)0.4(MgO)0.2,0.034799304,701.5646949,1.00E-03,0,,https://doi.org/10.1016/0167-2738(95)00054-A,O
(La2O3)0.36(Y2O3)0.04(SrO)0.2(Ga2O3)0.4(MgO)0.2,0.022144613,655.2248741,1.00E-03,0,,https://doi.org/10.1016/0167-2738(95)00054-A,O
(La2O3)0.36(Y2O3)0.04(SrO)0.2(Ga2O3)0.4(MgO)0.2,0.012119814,599.3822496,1.00E-03,0,,https://doi.org/10.1016/0167-2738(95)00054-A,O