Composition,Conductivity (S/cm),Temperature (degC),PO2 (%),PH2O (%),Grainsize,Ref,Carrier Type
(La2O3)0.2(SrO)0.6(TiO2)1,1.584893192,1000,1.13E-10,0,,https://doi.org/10.1016/S0167-2738(02)00140-6,E
(La2O3)0.2(SrO)0.6(TiO2)1,0.590783791,1000,1.20E-08,0,,https://doi.org/10.1016/S0167-2738(02)00140-6,E
(La2O3)0.2(SrO)0.6(TiO2)1,0.180776868,1000,1.00E-06,0,,https://doi.org/10.1016/S0167-2738(02)00140-6,E
(La2O3)0.2(SrO)0.6(TiO2)1,0.026826958,1000,1.24E-03,0,,https://doi.org/10.1016/S0167-2738(02)00140-6,E
(La2O3)0.2(SrO)0.6(TiO2)1,0.003727594,1000,2.34E+01,0,,https://doi.org/10.1016/S0167-2738(02)00140-6,E
(La2O3)0.2(SrO)0.6(TiO2)1,359.3813664,1019.035398,1.00E-16,0,,https://doi.org/10.1016/S0167-2738(02)00140-6,E
(La2O3)0.2(SrO)0.6(TiO2)1,550.4789808,824.7443609,1.00E-16,0,,https://doi.org/10.1016/S0167-2738(02)00140-6,E
(La2O3)0.2(SrO)0.6(TiO2)1,807.9926448,651.0506329,1.00E-16,0,,https://doi.org/10.1016/S0167-2738(02)00140-6,E
(La2O3)0.2(SrO)0.6(TiO2)1,1237.635028,510.5420394,1.00E-16,0,,https://doi.org/10.1016/S0167-2738(02)00140-6,E
(La2O3)0.2(SrO)0.6(TiO2)1,1740.767383,428.9230769,1.00E-16,0,,https://doi.org/10.1016/S0167-2738(02)00140-6,E
(La2O3)0.2(SrO)0.6(TiO2)1,2346.228848,340.4453782,1.00E-16,0,,https://doi.org/10.1016/S0167-2738(02)00140-6,E
(La2O3)0.2(SrO)0.6(TiO2)1,2903.775007,292.8914729,1.00E-16,0,,https://doi.org/10.1016/S0167-2738(02)00140-6,E
(La2O3)0.2(SrO)0.6(TiO2)1,3300.034791,239.8805621,1.00E-16,0,,https://doi.org/10.1016/S0167-2738(02)00140-6,E
(La2O3)0.2(SrO)0.6(TiO2)1,4262.158829,201.025974,1.00E-16,0,,https://doi.org/10.1016/S0167-2738(02)00140-6,E
(La2O3)0.2(SrO)0.6(TiO2)1,4262.158829,167.6438632,1.00E-16,0,,https://doi.org/10.1016/S0167-2738(02)00140-6,E
(La2O3)0.2(SrO)0.6(TiO2)1,5274.997064,131.0590406,1.00E-16,0,,https://doi.org/10.1016/S0167-2738(02)00140-6,E
(La2O3)0.2(SrO)0.6(TiO2)1,5504.789808,103.2886598,1.00E-16,0,,https://doi.org/10.1016/S0167-2738(02)00140-6,E
(La2O3)0.2(SrO)0.6(TiO2)1,5994.842503,79.09003215,1.00E-16,0,,https://doi.org/10.1016/S0167-2738(02)00140-6,E
(La2O3)0.2(SrO)0.6(TiO2)1,6255.993608,65.48531685,1.00E-16,0,,https://doi.org/10.1016/S0167-2738(02)00140-6,E
(CaO)0.01(La2O3)0.495(NbO2)1,0.000262599,601.3892948,20,3,,https://doi.org/10.1002/adma.201103102,H
(CaO)0.01(La2O3)0.495(NbO2)1,0.000132635,556.3244279,20,3,,https://doi.org/10.1002/adma.201103102,H
(CaO)0.01(La2O3)0.495(NbO2)1,5.93422E-05,504.5038565,20,3,,https://doi.org/10.1002/adma.201103102,H
(CaO)0.01(La2O3)0.495(NbO2)1,2.26439E-05,459.359811,20,3,,https://doi.org/10.1002/adma.201103102,H
(CaO)0.01(La2O3)0.495(NbO2)1,1.0986E-05,425.3821397,20,3,,https://doi.org/10.1002/adma.201103102,H
(CaO)0.01(La2O3)0.495(NbO2)1,5.77549E-06,397.2931574,20,3,,https://doi.org/10.1002/adma.201103102,H
(CaO)0.01(La2O3)0.495(NbO2)1,2.58483E-06,364.334846,20,3,,https://doi.org/10.1002/adma.201103102,H
(CaO)0.01(La2O3)0.495(NbO2)1,1.59569E-06,346.1532231,20,3,,https://doi.org/10.1002/adma.201103102,H
(La2O3)0.35(CaO)0.3(TiO2)1,2.203177768,834.7989758,0,0,,https://doi.org/10.1016/S0167-2738(98)00428-7,E
(La2O3)0.35(CaO)0.3(TiO2)1,2.089280456,650.7203644,0,0,,https://doi.org/10.1016/S0167-2738(98)00428-7,E
(La2O3)0.35(CaO)0.3(TiO2)1,1.624043923,496.1070748,0,0,,https://doi.org/10.1016/S0167-2738(98)00428-7,E
(La2O3)0.35(CaO)0.3(TiO2)1,1.327485295,402.677907,0,0,,https://doi.org/10.1016/S0167-2738(98)00428-7,E
(La2O3)0.35(CaO)0.3(TiO2)1,0.981111509,300.0858108,0,0,,https://doi.org/10.1016/S0167-2738(98)00428-7,E
(La2O3)0.35(CaO)0.3(TiO2)1,0.723484978,197.9165537,0,0,,https://doi.org/10.1016/S0167-2738(98)00428-7,E
(La2O3)0.35(CaO)0.3(TiO2)1,0.414940734,98.56498995,0,0,,https://doi.org/10.1016/S0167-2738(98)00428-7,E
(La2O3)0.35(CaO)0.3(TiO2)1,0.276924395,48.78048051,0,0,,https://doi.org/10.1016/S0167-2738(98)00428-7,E
(La2O3)0.35(CaO)0.3(TiO2)1,0.226271703,29.44064679,0,0,,https://doi.org/10.1016/S0167-2738(98)00428-7,E
(SrO)0.1(La2O3)0.3(TiO2)1,4.956809409,930,5.05369E-19,0,,https://doi.org/10.1039/A702865B,E
(SrO)0.1(La2O3)0.3(TiO2)1,4.961337041,930,2.22812E-18,0,,https://doi.org/10.1039/A702865B,E
(SrO)0.1(La2O3)0.3(TiO2)1,4.790410384,930,4.03339E-18,0,,https://doi.org/10.1039/A702865B,E
(SrO)0.1(La2O3)0.3(TiO2)1,4.626217116,930,9.82354E-18,0,,https://doi.org/10.1039/A702865B,E
(SrO)0.1(La2O3)0.3(TiO2)1,4.63002004,930,3.73392E-17,0,,https://doi.org/10.1039/A702865B,E
(SrO)0.1(La2O3)0.3(TiO2)1,4.316885201,930,1.41926E-16,0,,https://doi.org/10.1039/A702865B,E
(SrO)0.1(La2O3)0.3(TiO2)1,4.318462015,930,2.56918E-16,0,,https://doi.org/10.1039/A702865B,E
(SrO)0.1(La2O3)0.3(TiO2)1,4.026030695,930,8.41895E-16,0,,https://doi.org/10.1039/A702865B,E
(SrO)0.1(La2O3)0.3(TiO2)1,3.888391846,930,2.37842E-15,0,,https://doi.org/10.1039/A702865B,E
(SrO)0.1(La2O3)0.3(TiO2)1,3.891232964,930,7.79386E-15,0,,https://doi.org/10.1039/A702865B,E
(SrO)0.1(La2O3)0.3(TiO2)1,3.893009717,930,1.63651E-14,0,,https://doi.org/10.1039/A702865B,E
(SrO)0.1(La2O3)0.3(TiO2)1,3.503390123,930,6.22034E-14,0,,https://doi.org/10.1039/A702865B,E
(SrO)0.1(La2O3)0.3(TiO2)1,3.152188734,930,1.7573E-13,0,,https://doi.org/10.1039/A702865B,E
(SrO)0.1(La2O3)0.3(TiO2)1,3.043868263,930,3.68986E-13,0,,https://doi.org/10.1039/A702865B,E
(SrO)0.1(La2O3)0.3(TiO2)1,2.93980683,930,1.04242E-12,0,,https://doi.org/10.1039/A702865B,E
(SrO)0.1(La2O3)0.3(TiO2)1,2.553274698,930,3.4159E-12,0,,https://doi.org/10.1039/A702865B,E
(SrO)0.1(La2O3)0.3(TiO2)1,2.297108992,930,8.31961E-12,0,,https://doi.org/10.1039/A702865B,E
(SrO)0.1(La2O3)0.3(TiO2)1,2.298367693,930,2.02629E-11,0,,https://doi.org/10.1039/A702865B,E
(SrO)0.1(La2O3)0.3(TiO2)1,2.068153983,930,6.63995E-11,0,,https://doi.org/10.1039/A702865B,E
(SrO)0.1(La2O3)0.3(TiO2)1,1.734978954,930,7.13005E-10,0,,https://doi.org/10.1039/A702865B,E
(SrO)0.1(La2O3)0.3(TiO2)1,1.507685869,930,5.69056E-09,0,,https://doi.org/10.1039/A702865B,E
(SrO)0.1(La2O3)0.3(TiO2)1,0.747262922,930,0.00024793,0,,https://doi.org/10.1039/A702865B,E
(SrO)0.1(La2O3)0.3(TiO2)1,0.696406486,930,0.000448809,0,,https://doi.org/10.1039/A702865B,E
(SrO)0.1(La2O3)0.3(TiO2)1,0.563420536,930,0.001267923,0,,https://doi.org/10.1039/A702865B,E
(SrO)0.1(La2O3)0.3(TiO2)1,0.42465213,930,0.003581985,0,,https://doi.org/10.1039/A702865B,E
(SrO)0.1(La2O3)0.3(TiO2)1,0.169319655,930,0.044615374,0,,https://doi.org/10.1039/A702865B,E
(SrO)0.1(La2O3)0.3(TiO2)1,0.060683272,930,0.306982347,0,,https://doi.org/10.1039/A702865B,E
(SrO)0.1(La2O3)0.3(TiO2)1,0.018873502,930,1.820997201,0,,https://doi.org/10.1039/A702865B,E
(SrO)0.1(La2O3)0.3(TiO2)1,0.011100967,930,5.144464873,0,,https://doi.org/10.1039/A702865B,E
(SrO)0.1(La2O3)0.3(TiO2)1,0.004423008,930,19.55406765,0,,https://doi.org/10.1039/A702865B,E
(SrO)0.1(La2O3)0.3(TiO2)1,0.0017626,930,100,0,,https://doi.org/10.1039/A702865B,E
(SrO)0.25(La2O3)0.25(TiO2)1,4.155621678,930,1.9209E-18,0,,https://doi.org/10.1039/A702865B,E
(SrO)0.25(La2O3)0.25(TiO2)1,4.013552473,930,5.4267E-18,0,,https://doi.org/10.1039/A702865B,E
(SrO)0.25(La2O3)0.25(TiO2)1,4.016118353,930,1.53309E-17,0,,https://doi.org/10.1039/A702865B,E
(SrO)0.25(La2O3)0.25(TiO2)1,3.87846426,930,3.73392E-17,0,,https://doi.org/10.1039/A702865B,E
(SrO)0.25(La2O3)0.25(TiO2)1,3.746212313,930,1.22357E-16,0,,https://doi.org/10.1039/A702865B,E
(SrO)0.25(La2O3)0.25(TiO2)1,3.749634166,930,5.39459E-16,0,,https://doi.org/10.1039/A702865B,E
(SrO)0.25(La2O3)0.25(TiO2)1,3.373747759,930,1.52402E-15,0,,https://doi.org/10.1039/A702865B,E
(SrO)0.25(La2O3)0.25(TiO2)1,3.145002071,930,4.30547E-15,0,,https://doi.org/10.1039/A702865B,E
(SrO)0.25(La2O3)0.25(TiO2)1,2.829469364,930,1.04862E-14,0,,https://doi.org/10.1039/A702865B,E
(SrO)0.25(La2O3)0.25(TiO2)1,2.63786748,930,3.43623E-14,0,,https://doi.org/10.1039/A702865B,E
(SrO)0.25(La2O3)0.25(TiO2)1,2.459689311,930,1.515E-13,0,,https://doi.org/10.1039/A702865B,E
(SrO)0.25(La2O3)0.25(TiO2)1,2.293127653,930,4.96451E-13,0,,https://doi.org/10.1039/A702865B,E
(SrO)0.25(La2O3)0.25(TiO2)1,1.992895544,930,4.59591E-12,0,,https://doi.org/10.1039/A702865B,E
(SrO)0.25(La2O3)0.25(TiO2)1,1.731023382,930,1.7469E-11,0,,https://doi.org/10.1039/A702865B,E
(SrO)0.25(La2O3)0.25(TiO2)1,1.5579216,930,7.7019E-11,0,,https://doi.org/10.1039/A702865B,E
(SrO)0.25(La2O3)0.25(TiO2)1,1.260765793,930,3.39569E-10,0,,https://doi.org/10.1039/A702865B,E
(SrO)0.25(La2O3)0.25(TiO2)1,1.13437887,930,9.5931E-10,0,,https://doi.org/10.1039/A702865B,E
(SrO)0.25(La2O3)0.25(TiO2)1,1.095497572,930,2.33645E-09,0,,https://doi.org/10.1039/A702865B,E
(SrO)0.25(La2O3)0.25(TiO2)1,0.721189122,930,0.000213745,0,,https://doi.org/10.1039/A702865B,E
(SrO)0.25(La2O3)0.25(TiO2)1,0.626365623,930,0.000700424,0,,https://doi.org/10.1039/A702865B,E
(SrO)0.25(La2O3)0.25(TiO2)1,0.525267645,930,0.004154863,0,,https://doi.org/10.1039/A702865B,E
(SrO)0.25(La2O3)0.25(TiO2)1,0.440205869,930,0.00872412,0,,https://doi.org/10.1039/A702865B,E
(SrO)0.25(La2O3)0.25(TiO2)1,0.309063402,930,0.021248075,0,,https://doi.org/10.1039/A702865B,E
(SrO)0.25(La2O3)0.25(TiO2)1,0.188270345,930,0.033160308,0,,https://doi.org/10.1039/A702865B,E
(SrO)0.25(La2O3)0.25(TiO2)1,0.127546957,930,0.051750855,0,,https://doi.org/10.1039/A702865B,E
(SrO)0.25(La2O3)0.25(TiO2)1,0.036962699,930,0.413027893,0,,https://doi.org/10.1039/A702865B,E
(SrO)0.25(La2O3)0.25(TiO2)1,0.017581002,930,1.569915541,0,,https://doi.org/10.1039/A702865B,E
(SrO)0.25(La2O3)0.25(TiO2)1,0.009306676,930,19.55406765,0,,https://doi.org/10.1039/A702865B,E
(SrO)0.25(La2O3)0.25(TiO2)1,0.007269404,930,86.21185907,0,,https://doi.org/10.1039/A702865B,E
(SrO)0.4(La2O3)0.2(TiO2)1,2.814525799,930,1.9209E-18,0,,https://doi.org/10.1039/A702865B,E
(SrO)0.4(La2O3)0.2(TiO2)1,2.815296803,930,2.99781E-18,0,,https://doi.org/10.1039/A702865B,E
(SrO)0.4(La2O3)0.2(TiO2)1,2.816839445,930,7.30133E-18,0,,https://doi.org/10.1039/A702865B,E
(SrO)0.4(La2O3)0.2(TiO2)1,2.721036314,930,2.77523E-17,0,,https://doi.org/10.1039/A702865B,E
(SrO)0.4(La2O3)0.2(TiO2)1,2.628251561,930,9.09417E-17,0,,https://doi.org/10.1039/A702865B,E
(SrO)0.4(La2O3)0.2(TiO2)1,2.449380774,930,1.64625E-16,0,,https://doi.org/10.1039/A702865B,E
(SrO)0.4(La2O3)0.2(TiO2)1,2.450499171,930,3.45668E-16,0,,https://doi.org/10.1039/A702865B,E
(SrO)0.4(La2O3)0.2(TiO2)1,2.283934183,930,7.25813E-16,0,,https://doi.org/10.1039/A702865B,E
(SrO)0.4(La2O3)0.2(TiO2)1,2.128690927,930,1.52402E-15,0,,https://doi.org/10.1039/A702865B,E
(SrO)0.4(La2O3)0.2(TiO2)1,1.984543336,930,4.99406E-15,0,,https://doi.org/10.1039/A702865B,E
(SrO)0.4(La2O3)0.2(TiO2)1,1.785111488,930,9.04036E-15,0,,https://doi.org/10.1039/A702865B,E
(SrO)0.4(La2O3)0.2(TiO2)1,1.54969359,930,1.41086E-14,0,,https://doi.org/10.1039/A702865B,E
(SrO)0.4(La2O3)0.2(TiO2)1,1.445017533,930,6.22034E-14,0,,https://doi.org/10.1039/A702865B,E
(SrO)0.4(La2O3)0.2(TiO2)1,1.395616382,930,1.7573E-13,0,,https://doi.org/10.1039/A702865B,E
(SrO)0.4(La2O3)0.2(TiO2)1,1.255596565,930,4.28E-13,0,,https://doi.org/10.1039/A702865B,E
(SrO)0.4(La2O3)0.2(TiO2)1,1.212671193,930,1.20913E-12,0,,https://doi.org/10.1039/A702865B,E
(SrO)0.4(La2O3)0.2(TiO2)1,1.017219672,930,1.11936E-11,0,,https://doi.org/10.1039/A702865B,E
(SrO)0.4(La2O3)0.2(TiO2)1,0.94902999,930,1.20198E-10,0,,https://doi.org/10.1039/A702865B,E
(SrO)0.4(La2O3)0.2(TiO2)1,0.824324741,930,4.56871E-10,0,,https://doi.org/10.1039/A702865B,E
(SrO)0.4(La2O3)0.2(TiO2)1,0.308330618,930,0.000448809,0,,https://doi.org/10.1039/A702865B,E
(SrO)0.4(La2O3)0.2(TiO2)1,0.240791723,930,0.001470706,0,,https://doi.org/10.1039/A702865B,E
(SrO)0.4(La2O3)0.2(TiO2)1,0.110594908,930,0.011737825,0,,https://doi.org/10.1039/A702865B,E
(SrO)0.4(La2O3)0.2(TiO2)1,0.083348179,930,0.028588118,0,,https://doi.org/10.1039/A702865B,E
(SrO)0.4(La2O3)0.2(TiO2)1,0.048996667,930,0.033160308,0,,https://doi.org/10.1039/A702865B,E
(SrO)0.4(La2O3)0.2(TiO2)1,0.036918854,930,0.060027536,0,,https://doi.org/10.1039/A702865B,E
(SrO)0.4(La2O3)0.2(TiO2)1,0.023309114,930,0.16958266,0,,https://doi.org/10.1039/A702865B,E
(SrO)0.4(La2O3)0.2(TiO2)1,0.012771009,930,0.413027893,0,,https://doi.org/10.1039/A702865B,E
(SrO)0.4(La2O3)0.2(TiO2)1,0.007779641,930,0.644582263,0,,https://doi.org/10.1039/A702865B,E
(SrO)0.4(La2O3)0.2(TiO2)1,0.004742541,930,3.296410108,0,,https://doi.org/10.1039/A702865B,E
(SrO)0.4(La2O3)0.2(TiO2)1,0.003103641,930,19.55406765,0,,https://doi.org/10.1039/A702865B,E
(SrO)0.4(La2O3)0.2(TiO2)1,0.00234008,930,100,0,,https://doi.org/10.1039/A702865B,E
(La2O3)0.45(SrO)0.1(YbO)1,0.000191372,500,0,1.9,,https://doi.org/10.1016/j.ssi.2013.11.044,O
(La2O3)0.45(SrO)0.1(YbO)1,0.000483686,600,0,1.9,,https://doi.org/10.1016/j.ssi.2013.11.044,O
(La2O3)0.45(SrO)0.1(YbO)1,0.001015574,700,0,1.9,,https://doi.org/10.1016/j.ssi.2013.11.044,O
(La2O3)0.45(SrO)0.1(YbO)1,0.001614558,800,0,1.9,,https://doi.org/10.1016/j.ssi.2013.11.044,O
(La2O3)0.45(SrO)0.1(YbO)1,0.002566823,900,0,1.9,,https://doi.org/10.1016/j.ssi.2013.11.044,O
(La2O3)0.45(BaO)0.1(YbO)1,0.002646178,902.8802869,0,1.9,,https://doi.org/10.1016/j.electacta.2013.01.156,H
(La2O3)0.45(BaO)0.1(YbO)1,0.002011738,800.0927733,0,1.9,,https://doi.org/10.1016/j.electacta.2013.01.156,H
(La2O3)0.45(BaO)0.1(YbO)1,0.001245197,700.377094,0,1.9,,https://doi.org/10.1016/j.electacta.2013.01.156,H
(La2O3)0.45(BaO)0.1(YbO)1,0.000585945,598.0417957,0,1.9,,https://doi.org/10.1016/j.electacta.2013.01.156,H
(La2O3)0.45(BaO)0.1(YbO)1,0.000350464,547.8791209,0,1.9,,https://doi.org/10.1016/j.electacta.2013.01.156,H
(La2O3)0.45(BaO)0.1(YbO)1,0.000202557,501.4945568,0,1.9,,https://doi.org/10.1016/j.electacta.2013.01.156,H
(La2O3)0.45(BaO)0.1(YbO)1,0.000105635,448.1947503,0,1.9,,https://doi.org/10.1016/j.electacta.2013.01.156,H
(La2O3)0.45(BaO)0.1(YbO)1,4.33416E-05,399.2348772,0,1.9,,https://doi.org/10.1016/j.electacta.2013.01.156,H
(La2O3)0.45(BaO)0.1(YbO)1,1.49829E-05,352.0915253,0,1.9,,https://doi.org/10.1016/j.electacta.2013.01.156,H
(La2O3)0.45(BaO)0.1(YbO)1,3.67685E-06,299.8664893,0,1.9,,https://doi.org/10.1016/j.electacta.2013.01.156,H
(La2O3)0.45(SrO)0.1(YbO)1,0.000854177,899.3853805,0,1.9,,https://doi.org/10.1016/j.electacta.2013.01.156,O+H
(La2O3)0.45(SrO)0.1(YbO)1,0.000547136,797.2293221,0,1.9,,https://doi.org/10.1016/j.electacta.2013.01.156,O+H
(La2O3)0.45(SrO)0.1(YbO)1,0.000275725,700.7260174,0,1.9,,https://doi.org/10.1016/j.electacta.2013.01.156,O+H
(La2O3)0.45(SrO)0.1(YbO)1,0.000113128,598.3466067,0,1.9,,https://doi.org/10.1016/j.electacta.2013.01.156,O+H
(La2O3)0.45(SrO)0.1(YbO)1,7.00226E-05,550.044134,0,1.9,,https://doi.org/10.1016/j.electacta.2013.01.156,O+H
(La2O3)0.45(SrO)0.1(YbO)1,3.65174E-05,498.3854216,0,1.9,,https://doi.org/10.1016/j.electacta.2013.01.156,O+H
(La2O3)0.45(SrO)0.1(YbO)1,1.71838E-05,451.3636364,0,1.9,,https://doi.org/10.1016/j.electacta.2013.01.156,O+H
(La2O3)0.45(SrO)0.1(YbO)1,7.55051E-06,399.4277613,0,1.9,,https://doi.org/10.1016/j.electacta.2013.01.156,O+H
(La2O3)0.45(SrO)0.1(YbO)1,2.61016E-06,351.161179,0,1.9,,https://doi.org/10.1016/j.electacta.2013.01.156,O+H
(La2O3)0.45(SrO)0.1(YbO)1,6.41E-07,300.0065585,0,1.9,,https://doi.org/10.1016/j.electacta.2013.01.156,O+H
(La2O3)0.45(SrO)0.1(YbO)1,1.28E-07,249.6128895,0,1.9,,https://doi.org/10.1016/j.electacta.2013.01.156,O+H
(La2O3)0.45(CaO)0.1(YbO)1,0.000216925,903.725411,0,1.9,,https://doi.org/10.1016/j.electacta.2013.01.156,O+H
(La2O3)0.45(CaO)0.1(YbO)1,0.000129746,804.1157954,0,1.9,,https://doi.org/10.1016/j.electacta.2013.01.156,O+H
(La2O3)0.45(CaO)0.1(YbO)1,6.1054E-05,703.7498876,0,1.9,,https://doi.org/10.1016/j.electacta.2013.01.156,O+H
(La2O3)0.45(CaO)0.1(YbO)1,2.18417E-05,598.6516311,0,1.9,,https://doi.org/10.1016/j.electacta.2013.01.156,O+H
(La2O3)0.45(CaO)0.1(YbO)1,8.96151E-06,548.4828205,0,1.9,,https://doi.org/10.1016/j.electacta.2013.01.156,O+H
(La2O3)0.45(CaO)0.1(YbO)1,4.83642E-06,502.0419879,0,1.9,,https://doi.org/10.1016/j.electacta.2013.01.156,O+H
(La2O3)0.45(MgO)0.1(YbO)1,9.53162E-05,900.1218468,0,1.9,,https://doi.org/10.1016/j.electacta.2013.01.156,O+H
(La2O3)0.45(MgO)0.1(YbO)1,5.32342E-05,801.1150144,0,1.9,,https://doi.org/10.1016/j.electacta.2013.01.156,O+H
(La2O3)0.45(MgO)0.1(YbO)1,2.33909E-05,701.2975227,0,1.9,,https://doi.org/10.1016/j.electacta.2013.01.156,O+H
(La2O3)0.45(MgO)0.1(YbO)1,3.553E-06,601.1315,0,1.9,,https://doi.org/10.1016/j.electacta.2013.01.156,O+H
(SrO)0.85(Y2O3)0.05(TiO2)1,45.7274122,800,1.41264E-12,0,,https://doi.org/10.1016/S0025-5408(02)00774-2,E
(SrO)0.85(Y2O3)0.05(TiO2)1,47.15577807,800,3.32611E-13,0,,https://doi.org/10.1016/S0025-5408(02)00774-2,E
(SrO)0.85(Y2O3)0.05(TiO2)1,47.5862445,800,1.198E-14,0,,https://doi.org/10.1016/S0025-5408(02)00774-2,E
(SrO)0.85(Y2O3)0.05(TiO2)1,48.68197723,800,2.75995E-15,0,,https://doi.org/10.1016/S0025-5408(02)00774-2,E
(SrO)0.85(Y2O3)0.05(TiO2)1,49.67987668,800,5.62829E-16,0,,https://doi.org/10.1016/S0025-5408(02)00774-2,E
(SrO)0.85(Y2O3)0.05(TiO2)1,53.7497411,800,5.65697E-18,0,,https://doi.org/10.1016/S0025-5408(02)00774-2,E
(BaO)1(In2O3)0.15(CeO2)0.7,0.003886442,799.555205,20,0,5.6,https://doi.org/10.1016/j.ijhydene.2010.02.080,H
(BaO)1(In2O3)0.15(CeO2)0.7,0.002573047,751.0963855,20,0,5.6,https://doi.org/10.1016/j.ijhydene.2010.02.080,H
(BaO)1(In2O3)0.15(CeO2)0.7,0.001536622,699.8183119,20,0,5.6,https://doi.org/10.1016/j.ijhydene.2010.02.080,H
(BaO)1(In2O3)0.15(CeO2)0.7,0.000871562,649.6594301,20,0,5.6,https://doi.org/10.1016/j.ijhydene.2010.02.080,H
(BaO)1(In2O3)0.15(CeO2)0.7,0.000402233,599.9139923,20,0,5.6,https://doi.org/10.1016/j.ijhydene.2010.02.080,H
(BaO)1(In2O3)0.15(CeO2)0.7,0.000295222,549.2490931,20,0,5.6,https://doi.org/10.1016/j.ijhydene.2010.02.080,H
(BaO)1(In2O3)0.15(CeO2)0.7,0.004432171,799.555205,20,1.9,5.6,https://doi.org/10.1016/j.ijhydene.2010.02.080,H
(BaO)1(In2O3)0.15(CeO2)0.7,0.003081214,751.0963855,20,1.9,5.6,https://doi.org/10.1016/j.ijhydene.2010.02.080,H
(BaO)1(In2O3)0.15(CeO2)0.7,0.002142037,699.8183119,20,1.9,5.6,https://doi.org/10.1016/j.ijhydene.2010.02.080,H
(BaO)1(In2O3)0.15(CeO2)0.7,0.001568515,649.6594301,20,1.9,5.6,https://doi.org/10.1016/j.ijhydene.2010.02.080,H
(BaO)1(In2O3)0.15(CeO2)0.7,0.001274275,599.9139923,20,1.9,5.6,https://doi.org/10.1016/j.ijhydene.2010.02.080,H
(BaO)1(In2O3)0.15(CeO2)0.7,0.000982836,549.2490931,20,1.9,5.6,https://doi.org/10.1016/j.ijhydene.2010.02.080,H
(BaO)1(In2O3)0.15(CeO2)0.7,0.002636651,799.555205,0,1.9,5.6,https://doi.org/10.1016/j.ijhydene.2010.02.080,H
(BaO)1(In2O3)0.15(CeO2)0.7,0.001832981,751.0963855,0,1.9,5.6,https://doi.org/10.1016/j.ijhydene.2010.02.080,H
(BaO)1(In2O3)0.15(CeO2)0.7,0.001342207,699.8183119,0,1.9,5.6,https://doi.org/10.1016/j.ijhydene.2010.02.080,H
(BaO)1(In2O3)0.15(CeO2)0.7,0.00109042,649.6594301,0,1.9,5.6,https://doi.org/10.1016/j.ijhydene.2010.02.080,H
(BaO)1(In2O3)0.15(CeO2)0.7,0.00109042,599.9139923,0,1.9,5.6,https://doi.org/10.1016/j.ijhydene.2010.02.080,H
(BaO)1(In2O3)0.15(CeO2)0.7,0.000982836,549.2490931,0,1.9,5.6,https://doi.org/10.1016/j.ijhydene.2010.02.080,H
(BaO)1(Y2O3)0.15(CeO2)0.7,0.032170861,799.555205,20,0,15.2,https://doi.org/10.1016/j.ijhydene.2010.02.080,H
(BaO)1(Y2O3)0.15(CeO2)0.7,0.024861217,751.0963855,20,0,15.2,https://doi.org/10.1016/j.ijhydene.2010.02.080,H
(BaO)1(Y2O3)0.15(CeO2)0.7,0.017330296,699.8183119,20,0,15.2,https://doi.org/10.1016/j.ijhydene.2010.02.080,H
(BaO)1(Y2O3)0.15(CeO2)0.7,0.012080629,649.6594301,20,0,15.2,https://doi.org/10.1016/j.ijhydene.2010.02.080,H
(BaO)1(Y2O3)0.15(CeO2)0.7,0.008421184,599.9139923,20,0,15.2,https://doi.org/10.1016/j.ijhydene.2010.02.080,H
(BaO)1(Y2O3)0.15(CeO2)0.7,0.00650778,549.2490931,20,0,15.2,https://doi.org/10.1016/j.ijhydene.2010.02.080,H
(BaO)1(Y2O3)0.15(CeO2)0.7,0.035389317,799.555205,20,1.9,15.2,https://doi.org/10.1016/j.ijhydene.2010.02.080,H
(BaO)1(Y2O3)0.15(CeO2)0.7,0.030283287,751.0963855,20,1.9,15.2,https://doi.org/10.1016/j.ijhydene.2010.02.080,H
(BaO)1(Y2O3)0.15(CeO2)0.7,0.023357215,699.8183119,20,1.9,15.2,https://doi.org/10.1016/j.ijhydene.2010.02.080,H
(BaO)1(Y2O3)0.15(CeO2)0.7,0.019987196,649.6594301,20,1.9,15.2,https://doi.org/10.1016/j.ijhydene.2010.02.080,H
(BaO)1(Y2O3)0.15(CeO2)0.7,0.015415937,599.9139923,20,1.9,15.2,https://doi.org/10.1016/j.ijhydene.2010.02.080,H
(BaO)1(Y2O3)0.15(CeO2)0.7,0.012524038,549.2490931,20,1.9,15.2,https://doi.org/10.1016/j.ijhydene.2010.02.080,H