Composition,Conductivity (S/cm),Temperature (degC),PO2 (%),PH2O (%),Grainsize,Ref,Carrier Type
(La2O3)0.45(SrO)0.1(Sc2O3)0.45(MgO)0.1,0.007940204,1000,3.72057E-18,0,,https://doi.org/10.1016/S0167-2738(99)00337-9,O+H
(La2O3)0.45(SrO)0.1(Sc2O3)0.45(MgO)0.1,0.007812048,1000,1.8521E-16,0,,https://doi.org/10.1016/S0167-2738(99)00337-9,O+H
(La2O3)0.45(SrO)0.1(Sc2O3)0.45(MgO)0.1,0.007676643,1000,3.98397E-16,0,,https://doi.org/10.1016/S0167-2738(99)00337-9,O+H
(La2O3)0.45(SrO)0.1(Sc2O3)0.45(MgO)0.1,0.007413052,1000,1.99021E-15,0,,https://doi.org/10.1016/S0167-2738(99)00337-9,O+H
(La2O3)0.45(SrO)0.1(Sc2O3)0.45(MgO)0.1,0.007415904,1000,5.38907E-15,0,,https://doi.org/10.1016/S0167-2738(99)00337-9,O+H
(La2O3)0.45(SrO)0.1(Sc2O3)0.45(MgO)0.1,0.007419195,1000,1.70093E-14,0,,https://doi.org/10.1016/S0167-2738(99)00337-9,O+H
(La2O3)0.45(SrO)0.1(Sc2O3)0.45(MgO)0.1,0.007037557,1000,6.75002E-14,0,,https://doi.org/10.1016/S0167-2738(99)00337-9,O+H
(La2O3)0.45(SrO)0.1(Sc2O3)0.45(MgO)0.1,0.007447785,1000,3.60443E-10,0,,https://doi.org/10.1016/S0167-2738(99)00337-9,O+H
(La2O3)0.45(SrO)0.1(Sc2O3)0.45(MgO)0.1,0.007450871,1000,1.05373E-09,0,,https://doi.org/10.1016/S0167-2738(99)00337-9,O+H
(La2O3)0.45(SrO)0.1(Sc2O3)0.45(MgO)0.1,0.007460355,1000,2.84241E-08,0,,https://doi.org/10.1016/S0167-2738(99)00337-9,O+H
(La2O3)0.45(SrO)0.1(Sc2O3)0.45(MgO)0.1,0.007879128,1000,7.67415E-07,0,,https://doi.org/10.1016/S0167-2738(99)00337-9,O+H
(La2O3)0.45(SrO)0.1(Sc2O3)0.45(MgO)0.1,0.014230933,1000,0.076029593,0,,https://doi.org/10.1016/S0167-2738(99)00337-9,O+H
(La2O3)0.45(SrO)0.1(Sc2O3)0.45(MgO)0.1,0.042142056,1000,1.047792339,0,,https://doi.org/10.1016/S0167-2738(99)00337-9,O+H
(La2O3)0.45(SrO)0.1(Sc2O3)0.45(MgO)0.1,0.053126114,1000,3.584221919,0,,https://doi.org/10.1016/S0167-2738(99)00337-9,O+H
(La2O3)0.45(SrO)0.1(Sc2O3)0.45(MgO)0.1,0.065792792,1000,12.25705337,0,,https://doi.org/10.1016/S0167-2738(99)00337-9,O+H
(La2O3)0.45(SrO)0.1(Sc2O3)0.45(MgO)0.1,0.092300865,1000,77.53563405,0,,https://doi.org/10.1016/S0167-2738(99)00337-9,O+H
(La2O3)0.45(SrO)0.1(Ga2O3)0.45(MgO)0.1,0.116,800,1.00E-03,0,,https://doi.org/10.1111/j.1151-2916.1998.tb02662.x,O
(La2O3)0.45(SrO)0.1(Ga2O3)0.45(MgO)0.1,0.061,702,1.00E-03,0,,https://doi.org/10.1111/j.1151-2916.1998.tb02662.x,O
(La2O3)0.45(SrO)0.1(Ga2O3)0.45(MgO)0.1,0.023,595,1.00E-03,0,,https://doi.org/10.1111/j.1151-2916.1998.tb02662.x,O
(La2O3)0.45(SrO)0.1(Sc2O3)0.45(MgO)0.1,0.062698134,1002.720165,100,1.9,,https://doi.org/10.1016/S0167-2738(99)00194-0,O+H
(La2O3)0.45(SrO)0.1(Sc2O3)0.45(MgO)0.1,0.03740509,899.7616646,100,1.9,,https://doi.org/10.1016/S0167-2738(99)00194-0,O+H
(La2O3)0.45(SrO)0.1(Sc2O3)0.45(MgO)0.1,0.014618792,763.7892977,100,1.9,,https://doi.org/10.1016/S0167-2738(99)00194-0,O+H
(La2O3)0.45(SrO)0.1(Sc2O3)0.45(MgO)0.1,0.009702462,711.1269841,100,1.9,,https://doi.org/10.1016/S0167-2738(99)00194-0,O+H
(La2O3)0.45(SrO)0.1(Sc2O3)0.45(MgO)0.1,0.005832353,667.3437816,100,1.9,,https://doi.org/10.1016/S0167-2738(99)00194-0,O+H
(La2O3)0.45(SrO)0.1(Sc2O3)0.45(MgO)0.1,0.001709423,606.8486282,100,1.9,,https://doi.org/10.1016/S0167-2738(99)00194-0,O+H
(La2O3)0.45(SrO)0.1(Sc2O3)0.45(MgO)0.1,0.000360697,517.144435,100,1.9,,https://doi.org/10.1016/S0167-2738(99)00194-0,O+H
(La2O3)0.45(SrO)0.1(Sc2O3)0.45(MgO)0.1,0.000165552,476.3956487,100,1.9,,https://doi.org/10.1016/S0167-2738(99)00194-0,O+H
(La2O3)0.45(SrO)0.1(Sc2O3)0.45(MgO)0.1,3.47076E-05,404.3488711,100,1.9,,https://doi.org/10.1016/S0167-2738(99)00194-0,O+H
(La2O3)0.45(SrO)0.1(Sc2O3)0.45(MgO)0.1,3.36339E-06,303.5654061,100,1.9,,https://doi.org/10.1016/S0167-2738(99)00194-0,O+H
(La2O3)0.45(SrO)0.1(Sc2O3)0.45(MgO)0.1,1.83558E-06,280.2421178,100,1.9,,https://doi.org/10.1016/S0167-2738(99)00194-0,O+H
(La2O3)0.45(SrO)0.1(Sc2O3)0.45(MgO)0.1,1.00419E-07,206.1344668,100,1.9,,https://doi.org/10.1016/S0167-2738(99)00194-0,O+H
(La2O3)0.45(SrO)0.1(Sc2O3)0.45(MgO)0.1,3.48361E-08,182.6589907,100,1.9,,https://doi.org/10.1016/S0167-2738(99)00194-0,O+H
(La2O3)0.45(SrO)0.1(Sc2O3)0.45(MgO)0.1,1.00776E-08,158.9554111,100,1.9,,https://doi.org/10.1016/S0167-2738(99)00194-0,O+H
(La2O3)0.45(SrO)0.1(Sc2O3)0.45(MgO)0.1,0.002238974,1009.758621,0,0,,https://doi.org/10.1016/S0167-2738(99)00194-0,O+H
(La2O3)0.45(SrO)0.1(Sc2O3)0.45(MgO)0.1,0.001349873,949.0762155,0,0,,https://doi.org/10.1016/S0167-2738(99)00194-0,O+H
(La2O3)0.45(SrO)0.1(Sc2O3)0.45(MgO)0.1,0.00111647,899.7616646,0,0,,https://doi.org/10.1016/S0167-2738(99)00194-0,O+H
(La2O3)0.45(SrO)0.1(Sc2O3)0.45(MgO)0.1,0.000695314,859.7649208,0,0,,https://doi.org/10.1016/S0167-2738(99)00194-0,O+H
(La2O3)0.45(SrO)0.1(Sc2O3)0.45(MgO)0.1,0.000506196,802.1445087,0,0,,https://doi.org/10.1016/S0167-2738(99)00194-0,H
(La2O3)0.45(SrO)0.1(Sc2O3)0.45(MgO)0.1,0.000418498,759.1864595,0,0,,https://doi.org/10.1016/S0167-2738(99)00194-0,H
(La2O3)0.45(SrO)0.1(Sc2O3)0.45(MgO)0.1,0.000313604,723.7845659,0,0,,https://doi.org/10.1016/S0167-2738(99)00194-0,H
(La2O3)0.45(SrO)0.1(Sc2O3)0.45(MgO)0.1,0.000275213,671.1624365,0,0,,https://doi.org/10.1016/S0167-2738(99)00194-0,H
(La2O3)0.45(SrO)0.1(Sc2O3)0.45(MgO)0.1,0.000142073,600.2394366,0,0,,https://doi.org/10.1016/S0167-2738(99)00194-0,H
(La2O3)0.45(SrO)0.1(Sc2O3)0.45(MgO)0.1,7.20682E-05,511.8101266,0,0,,https://doi.org/10.1016/S0167-2738(99)00194-0,H
(La2O3)0.45(SrO)0.1(Sc2O3)0.45(MgO)0.1,3.92692E-05,481.2579075,0,0,,https://doi.org/10.1016/S0167-2738(99)00194-0,H
(La2O3)0.45(SrO)0.1(Sc2O3)0.45(MgO)0.1,1.13837E-05,408.3186813,0,0,,https://doi.org/10.1016/S0167-2738(99)00194-0,H
(La2O3)0.45(SrO)0.1(Sc2O3)0.45(MgO)0.1,1.10136E-06,307.8869457,0,0,,https://doi.org/10.1016/S0167-2738(99)00194-0,H
(La2O3)0.45(SrO)0.1(Sc2O3)0.45(MgO)0.1,5.4818E-07,284.2198922,0,0,,https://doi.org/10.1016/S0167-2738(99)00194-0,H
(La2O3)0.45(SrO)0.1(Sc2O3)0.45(MgO)0.1,4.38033E-08,205.1491003,0,0,,https://doi.org/10.1016/S0167-2738(99)00194-0,H
(La2O3)0.45(SrO)0.1(Sc2O3)0.45(MgO)0.1,1.82428E-08,182.6589907,0,0,,https://doi.org/10.1016/S0167-2738(99)00194-0,H
(La2O3)0.45(SrO)0.1(Sc2O3)0.45(MgO)0.1,7.66596E-09,157.3563165,0,0,,https://doi.org/10.1016/S0167-2738(99)00194-0,H
(La2O3)0.45(SrO)0.1(Sc2O3)0.45(MgO)0.1,0.003534396,1016.875173,0,1.9,,https://doi.org/10.1016/S0167-2738(99)00194-0,O+H
(La2O3)0.45(SrO)0.1(Sc2O3)0.45(MgO)0.1,0.002564134,955.5336856,0,1.9,,https://doi.org/10.1016/S0167-2738(99)00194-0,O+H
(La2O3)0.45(SrO)0.1(Sc2O3)0.45(MgO)0.1,0.001865383,893.8757842,0,1.9,,https://doi.org/10.1016/S0167-2738(99)00194-0,O+H
(La2O3)0.45(SrO)0.1(Sc2O3)0.45(MgO)0.1,0.001541445,797.1956272,0,1.9,,https://doi.org/10.1016/S0167-2738(99)00194-0,H
(La2O3)0.45(SrO)0.1(Sc2O3)0.45(MgO)0.1,0.001207897,715.3103082,0,1.9,,https://doi.org/10.1016/S0167-2738(99)00194-0,H
(La2O3)0.45(SrO)0.1(Sc2O3)0.45(MgO)0.1,0.000907541,678.8935517,0,1.9,,https://doi.org/10.1016/S0167-2738(99)00194-0,H
(La2O3)0.45(SrO)0.1(Sc2O3)0.45(MgO)0.1,0.000518066,600.2394366,0,1.9,,https://doi.org/10.1016/S0167-2738(99)00194-0,H
(La2O3)0.45(SrO)0.1(Sc2O3)0.45(MgO)0.1,0.000205768,522.5517536,0,1.9,,https://doi.org/10.1016/S0167-2738(99)00194-0,H
(La2O3)0.45(SrO)0.1(Sc2O3)0.45(MgO)0.1,1.99353E-05,404.3488711,0,1.9,,https://doi.org/10.1016/S0167-2738(99)00194-0,H
(La2O3)0.45(SrO)0.1(Sc2O3)0.45(MgO)0.1,4.00604E-06,309.341891,0,1.9,,https://doi.org/10.1016/S0167-2738(99)00194-0,H
(La2O3)0.45(SrO)0.1(Sc2O3)0.45(MgO)0.1,2.17143E-06,289.6134301,0,1.9,,https://doi.org/10.1016/S0167-2738(99)00194-0,H
(La2O3)0.45(SrO)0.1(Sc2O3)0.45(MgO)0.1,1.59071E-07,207.1239029,0,1.9,,https://doi.org/10.1016/S0167-2738(99)00194-0,H
(La2O3)0.45(SrO)0.1(Sc2O3)0.45(MgO)0.1,5.03167E-08,183.5537555,0,1.9,,https://doi.org/10.1016/S0167-2738(99)00194-0,H
(La2O3)0.45(SrO)0.1(Sc2O3)0.45(MgO)0.1,1.59074E-08,161.3764596,0,1.9,,https://doi.org/10.1016/S0167-2738(99)00194-0,H
(La2O3)0.45(SrO)0.1(Sc2O3)0.45(MgO)0.1,0.003052154,1000,2.69716E-20,1.9,,https://doi.org/10.1016/S0167-2738(99)00194-0,O+H
(La2O3)0.45(SrO)0.1(Sc2O3)0.45(MgO)0.1,0.003172919,1000,6.5159E-18,1.9,,https://doi.org/10.1016/S0167-2738(99)00194-0,O+H
(La2O3)0.45(SrO)0.1(Sc2O3)0.45(MgO)0.1,0.003059392,1000,4.25149E-17,1.9,,https://doi.org/10.1016/S0167-2738(99)00194-0,O+H
(La2O3)0.45(SrO)0.1(Sc2O3)0.45(MgO)0.1,0.003060447,1000,1.24066E-16,1.9,,https://doi.org/10.1016/S0167-2738(99)00194-0,O+H
(La2O3)0.45(SrO)0.1(Sc2O3)0.45(MgO)0.1,0.003005585,1000,4.73535E-16,1.9,,https://doi.org/10.1016/S0167-2738(99)00194-0,O+H
(La2O3)0.45(SrO)0.1(Sc2O3)0.45(MgO)0.1,0.002951962,1000,2.36227E-15,1.9,,https://doi.org/10.1016/S0167-2738(99)00194-0,O+H
(La2O3)0.45(SrO)0.1(Sc2O3)0.45(MgO)0.1,0.003009212,1000,2.0102E-14,1.9,,https://doi.org/10.1016/S0167-2738(99)00194-0,O+H
(La2O3)0.45(SrO)0.1(Sc2O3)0.45(MgO)0.1,0.003133266,1000,6.87768E-10,1.9,,https://doi.org/10.1016/S0167-2738(99)00194-0,O+H
(La2O3)0.45(SrO)0.1(Sc2O3)0.45(MgO)0.1,0.003255697,1000,3.81051E-08,1.9,,https://doi.org/10.1016/S0167-2738(99)00194-0,O+H
(La2O3)0.45(SrO)0.1(Sc2O3)0.45(MgO)0.1,0.019025152,1000,4.906833107,1.9,,https://doi.org/10.1016/S0167-2738(99)00194-0,O+H
(La2O3)0.45(SrO)0.1(Sc2O3)0.45(MgO)0.1,0.025603152,1000,36.13230401,1.9,,https://doi.org/10.1016/S0167-2738(99)00194-0,O+E
(La2O3)0.45(SrO)0.1(Sc2O3)0.45(MgO)0.1,0.038506513,1000,302.8715059,1.9,,https://doi.org/10.1016/S0167-2738(99)00194-0,O+E
(La2O3)0.45(SrO)0.1(Sc2O3)0.45(MgO)0.1,0.051820247,1000,2230.246085,1.9,,https://doi.org/10.1016/S0167-2738(99)00194-0,O+E
(La2O3)0.45(SrO)0.1(Sc2O3)0.45(MgO)0.1,0.002486849,1000,8.37003E-22,0,,https://doi.org/10.1016/S0167-2738(99)00194-0,O+H
(La2O3)0.45(SrO)0.1(Sc2O3)0.45(MgO)0.1,0.002270629,1000,1.36007E-19,0,,https://doi.org/10.1016/S0167-2738(99)00194-0,O+H
(La2O3)0.45(SrO)0.1(Sc2O3)0.45(MgO)0.1,0.00223079,1000,1.73185E-18,0,,https://doi.org/10.1016/S0167-2738(99)00194-0,O+H
(La2O3)0.45(SrO)0.1(Sc2O3)0.45(MgO)0.1,0.002191179,1000,1.12918E-17,0,,https://doi.org/10.1016/S0167-2738(99)00194-0,O+H
(La2O3)0.45(SrO)0.1(Sc2O3)0.45(MgO)0.1,0.002112597,1000,5.63707E-17,0,,https://doi.org/10.1016/S0167-2738(99)00194-0,O+H
(La2O3)0.45(SrO)0.1(Sc2O3)0.45(MgO)0.1,0.002153198,1000,2.80807E-16,0,,https://doi.org/10.1016/S0167-2738(99)00194-0,O+H
(La2O3)0.45(SrO)0.1(Sc2O3)0.45(MgO)0.1,0.002200921,1000,1.09916E-11,0,,https://doi.org/10.1016/S0167-2738(99)00194-0,O+H
(La2O3)0.45(SrO)0.1(Sc2O3)0.45(MgO)0.1,0.002201774,1000,3.667E-11,0,,https://doi.org/10.1016/S0167-2738(99)00194-0,O+H
(La2O3)0.45(SrO)0.1(Sc2O3)0.45(MgO)0.1,0.002163982,1000,1.55779E-09,0,,https://doi.org/10.1016/S0167-2738(99)00194-0,O+H
(La2O3)0.45(SrO)0.1(Sc2O3)0.45(MgO)0.1,0.0023771,1000,9.84587E-08,0,,https://doi.org/10.1016/S0167-2738(99)00194-0,O+H
(La2O3)0.45(SrO)0.1(Sc2O3)0.45(MgO)0.1,0.018677673,1000,6.417865967,0,,https://doi.org/10.1016/S0167-2738(99)00194-0,O+H
(La2O3)0.45(SrO)0.1(Sc2O3)0.45(MgO)0.1,0.029150708,1000,53.71924889,0,,https://doi.org/10.1016/S0167-2738(99)00194-0,O+E
(La2O3)0.45(SrO)0.1(Sc2O3)0.45(MgO)0.1,0.043851393,1000,879.4005694,0,,https://doi.org/10.1016/S0167-2738(99)00194-0,O+E
(La2O3)0.45(SrO)0.1(Sc2O3)0.45(MgO)0.1,0.053770944,1000,1703.92978,0,,https://doi.org/10.1016/S0167-2738(99)00194-0,O+E
(La2O3)0.45(SrO)0.1(Sc2O3)0.45(MgO)0.1,0.000742087,600,2.77385E-29,1.9,,https://doi.org/10.1016/S0167-2738(99)00194-0,H
(La2O3)0.45(SrO)0.1(Sc2O3)0.45(MgO)0.1,0.000715412,600,1.05948E-28,1.9,,https://doi.org/10.1016/S0167-2738(99)00194-0,H
(La2O3)0.45(SrO)0.1(Sc2O3)0.45(MgO)0.1,0.000715782,600,5.28154E-28,1.9,,https://doi.org/10.1016/S0167-2738(99)00194-0,H
(La2O3)0.45(SrO)0.1(Sc2O3)0.45(MgO)0.1,0.000716152,600,2.63285E-27,1.9,,https://doi.org/10.1016/S0167-2738(99)00194-0,H
(La2O3)0.45(SrO)0.1(Sc2O3)0.45(MgO)0.1,0.000716584,600,1.71542E-26,1.9,,https://doi.org/10.1016/S0167-2738(99)00194-0,H
(La2O3)0.45(SrO)0.1(Sc2O3)0.45(MgO)0.1,0.00071714,600,1.90927E-25,1.9,,https://doi.org/10.1016/S0167-2738(99)00194-0,H
(La2O3)0.45(SrO)0.1(Sc2O3)0.45(MgO)0.1,0.000717881,600,4.7446E-24,1.9,,https://doi.org/10.1016/S0167-2738(99)00194-0,H
(La2O3)0.45(SrO)0.1(Sc2O3)0.45(MgO)0.1,0.000718314,600,3.09131E-23,1.9,,https://doi.org/10.1016/S0167-2738(99)00194-0,H
(La2O3)0.45(SrO)0.1(Sc2O3)0.45(MgO)0.1,0.000692494,600,1.18074E-22,1.9,,https://doi.org/10.1016/S0167-2738(99)00194-0,H
(La2O3)0.45(SrO)0.1(Sc2O3)0.45(MgO)0.1,0.000694196,600,2.43258E-19,1.9,,https://doi.org/10.1016/S0167-2738(99)00194-0,H
(La2O3)0.45(SrO)0.1(Sc2O3)0.45(MgO)0.1,0.001478033,600,35.29914837,1.9,,https://doi.org/10.1016/S0167-2738(99)00194-0,H+E
(La2O3)0.45(SrO)0.1(Sc2O3)0.45(MgO)0.1,0.001652378,600,117.2581666,1.9,,https://doi.org/10.1016/S0167-2738(99)00194-0,H+E
(La2O3)0.45(SrO)0.1(Sc2O3)0.45(MgO)0.1,0.001846969,600,228.0167396,1.9,,https://doi.org/10.1016/S0167-2738(99)00194-0,H+E
(La2O3)0.45(SrO)0.1(Sc2O3)0.45(MgO)0.1,0.001989753,600,758.5235619,1.9,,https://doi.org/10.1016/S0167-2738(99)00194-0,H+E
(La2O3)0.45(SrO)0.1(Sc2O3)0.45(MgO)0.1,0.00218336,600,1687.49795,1.9,,https://doi.org/10.1016/S0167-2738(99)00194-0,H+E
(La2O3)0.45(SrO)0.1(Sc2O3)0.45(MgO)0.1,0.000210379,600,6.00144E-31,0,,https://doi.org/10.1016/S0167-2738(99)00194-0,H
(La2O3)0.45(SrO)0.1(Sc2O3)0.45(MgO)0.1,0.00021859,600,2.90842E-29,0,,https://doi.org/10.1016/S0167-2738(99)00194-0,H
(La2O3)0.45(SrO)0.1(Sc2O3)0.45(MgO)0.1,0.000218741,600,2.47673E-28,0,,https://doi.org/10.1016/S0167-2738(99)00194-0,H
(La2O3)0.45(SrO)0.1(Sc2O3)0.45(MgO)0.1,0.000223031,600,4.11606E-27,0,,https://doi.org/10.1016/S0167-2738(99)00194-0,H
(La2O3)0.45(SrO)0.1(Sc2O3)0.45(MgO)0.1,0.00016299,600,1.76876E-25,0,,https://doi.org/10.1016/S0167-2738(99)00194-0,H
(La2O3)0.45(SrO)0.1(Sc2O3)0.45(MgO)0.1,0.000157335,600,3.74838E-23,0,,https://doi.org/10.1016/S0167-2738(99)00194-0,H
(La2O3)0.45(SrO)0.1(Sc2O3)0.45(MgO)0.1,0.000154581,600,5.45672E-22,0,,https://doi.org/10.1016/S0167-2738(99)00194-0,H
(La2O3)0.45(SrO)0.1(Sc2O3)0.45(MgO)0.1,0.00016968,600,3.54256E-21,0,,https://doi.org/10.1016/S0167-2738(99)00194-0,H
(La2O3)0.45(SrO)0.1(Sc2O3)0.45(MgO)0.1,0.000176364,600,5.0099E-19,0,,https://doi.org/10.1016/S0167-2738(99)00194-0,H
(La2O3)0.45(SrO)0.1(Sc2O3)0.45(MgO)0.1,0.001811831,600,26.79523123,0,,https://doi.org/10.1016/S0167-2738(99)00194-0,H+E
(La2O3)0.45(SrO)0.1(Sc2O3)0.45(MgO)0.1,0.002141268,600,88.81803734,0,,https://doi.org/10.1016/S0167-2738(99)00194-0,H+E
(La2O3)0.45(SrO)0.1(Sc2O3)0.45(MgO)0.1,0.002577242,600,131.7650525,0,,https://doi.org/10.1016/S0167-2738(99)00194-0,H+E
(La2O3)0.45(SrO)0.1(Sc2O3)0.45(MgO)0.1,0.003160508,600,333.6897066,0,,https://doi.org/10.1016/S0167-2738(99)00194-0,H+E
(La2O3)0.45(SrO)0.1(Sc2O3)0.45(MgO)0.1,0.004022712,600,1441.508302,0,,https://doi.org/10.1016/S0167-2738(99)00194-0,H+E
(La2O3)0.45(SrO)0.1(Sc2O3)0.45(MgO)0.1,0.004495863,600,1875.963354,0,,https://doi.org/10.1016/S0167-2738(99)00194-0,H+E
(La2O3)0.475(SrO)0.05(Ga2O3)0.45(MgO)0.1,0.079,800,1.00E-03,0,,https://doi.org/10.1111/j.1151-2916.1998.tb02662.x,O
(La2O3)0.475(SrO)0.05(Ga2O3)0.45(MgO)0.1,0.042,702,1.00E-03,0,,https://doi.org/10.1111/j.1151-2916.1998.tb02662.x,O
(La2O3)0.475(SrO)0.05(Ga2O3)0.45(MgO)0.1,0.017,595,1.00E-03,0,,https://doi.org/10.1111/j.1151-2916.1998.tb02662.x,O
(BaO)1(ZrO2)0.5(CeO2)0.4(Y2O3)0.1,0.008553162,800,0,1.9,2.38,https://doi.org/10.1016/j.ijhydene.2016.10.120,H
(BaO)1(ZrO2)0.5(CeO2)0.4(Y2O3)0.1,0.007239832,700,0,1.9,2.38,https://doi.org/10.1016/j.ijhydene.2016.10.120,H
(BaO)1(ZrO2)0.5(CeO2)0.4(Y2O3)0.1,0.006660846,600,0,1.9,2.38,https://doi.org/10.1016/j.ijhydene.2016.10.120,H
(BaO)1(ZrO2)0.5(CeO2)0.4(Y2O3)0.1,0.003874675,500,0,1.9,2.38,https://doi.org/10.1016/j.ijhydene.2016.10.120,H
(BaO)1(ZrO2)0.5(CeO2)0.4(Y2O3)0.1,0.001042556,400,0,1.9,2.38,https://doi.org/10.1016/j.ijhydene.2016.10.120,H
(BaO)1(ZrO2)0.5(CeO2)0.4(Y2O3)0.1,0.023744641,800,21,1.9,2.38,https://doi.org/10.1016/j.ijhydene.2016.10.120,H+E
(BaO)1(ZrO2)0.5(CeO2)0.4(Y2O3)0.1,0.012975442,700,21,1.9,2.38,https://doi.org/10.1016/j.ijhydene.2016.10.120,H+E
(BaO)1(ZrO2)0.5(CeO2)0.4(Y2O3)0.1,0.007869146,600,21,1.9,2.38,https://doi.org/10.1016/j.ijhydene.2016.10.120,H+E
(BaO)1(ZrO2)0.5(CeO2)0.4(Y2O3)0.1,0.003794771,500,21,1.9,2.38,https://doi.org/10.1016/j.ijhydene.2016.10.120,H+E
(BaO)1(ZrO2)0.5(CeO2)0.4(Y2O3)0.1,0.000846451,400,21,1.9,2.38,https://doi.org/10.1016/j.ijhydene.2016.10.120,H+E
(SrO)1(ZrO2)0.5(CeO2)0.4(Y2O3)0.1,0.014103317,800,0,1.9,3.67,https://doi.org/10.1016/j.ijhydene.2016.10.120,H
(SrO)1(ZrO2)0.5(CeO2)0.4(Y2O3)0.1,0.008733262,700,0,1.9,3.67,https://doi.org/10.1016/j.ijhydene.2016.10.120,H
(SrO)1(ZrO2)0.5(CeO2)0.4(Y2O3)0.1,0.004872847,600,0,1.9,3.67,https://doi.org/10.1016/j.ijhydene.2016.10.120,H
(SrO)1(ZrO2)0.5(CeO2)0.4(Y2O3)0.1,0.001948017,500,0,1.9,3.67,https://doi.org/10.1016/j.ijhydene.2016.10.120,H
(SrO)1(ZrO2)0.5(CeO2)0.4(Y2O3)0.1,0.000513343,400,0,1.9,3.67,https://doi.org/10.1016/j.ijhydene.2016.10.120,H
(SrO)1(ZrO2)0.5(CeO2)0.4(Y2O3)0.1,0.019684194,800,21,1.9,3.67,https://doi.org/10.1016/j.ijhydene.2016.10.120,H+E
(SrO)1(ZrO2)0.5(CeO2)0.4(Y2O3)0.1,0.010983076,700,21,1.9,3.67,https://doi.org/10.1016/j.ijhydene.2016.10.120,H+E
(SrO)1(ZrO2)0.5(CeO2)0.4(Y2O3)0.1,0.00518719,600,21,1.9,3.67,https://doi.org/10.1016/j.ijhydene.2016.10.120,H+E
(SrO)1(ZrO2)0.5(CeO2)0.4(Y2O3)0.1,0.001989035,500,21,1.9,3.67,https://doi.org/10.1016/j.ijhydene.2016.10.120,H+E
(SrO)1(ZrO2)0.5(CeO2)0.4(Y2O3)0.1,0.000513343,400,21,1.9,3.67,https://doi.org/10.1016/j.ijhydene.2016.10.120,H+E
(BaO)1(CeO2)0.4(ZrO2)0.4(Dy2O3)0.1,0.079831146,900.2851986,20,1.9,5.1,https://doi.org/10.1016/j.electacta.2018.07.179,H+E
(BaO)1(CeO2)0.4(ZrO2)0.4(Dy2O3)0.1,0.067967386,851.567474,20,1.9,5.1,https://doi.org/10.1016/j.electacta.2018.07.179,H+E
(BaO)1(CeO2)0.4(ZrO2)0.4(Dy2O3)0.1,0.059103991,799.6072607,20,1.9,5.1,https://doi.org/10.1016/j.electacta.2018.07.179,H+E
(BaO)1(CeO2)0.4(ZrO2)0.4(Dy2O3)0.1,0.050310193,749.0125786,20,1.9,5.1,https://doi.org/10.1016/j.electacta.2018.07.179,H+E
(BaO)1(CeO2)0.4(ZrO2)0.4(Dy2O3)0.1,0.042817759,701.5127436,20,1.9,5.1,https://doi.org/10.1016/j.electacta.2018.07.179,H+E
(BaO)1(CeO2)0.4(ZrO2)0.4(Dy2O3)0.1,0.034546823,650.2954545,20,1.9,5.1,https://doi.org/10.1016/j.electacta.2018.07.179,H+E
(BaO)1(CeO2)0.4(ZrO2)0.4(Dy2O3)0.1,0.026420274,600.655914,20,1.9,5.1,https://doi.org/10.1016/j.electacta.2018.07.179,H+E
(BaO)1(CeO2)0.4(ZrO2)0.4(Dy2O3)0.1,0.020201215,550.8276299,20,1.9,5.1,https://doi.org/10.1016/j.electacta.2018.07.179,H+E
(BaO)1(CeO2)0.4(ZrO2)0.4(Dy2O3)0.1,0.01527977,499.8894174,20,1.9,5.1,https://doi.org/10.1016/j.electacta.2018.07.179,H+E
(BaO)1(CeO2)0.4(ZrO2)0.4(Dy2O3)0.1,0.031287465,900.2851986,0,1.9,5.1,https://doi.org/10.1016/j.electacta.2018.07.179,H
(BaO)1(CeO2)0.4(ZrO2)0.4(Dy2O3)0.1,0.028729848,851.567474,0,1.9,5.1,https://doi.org/10.1016/j.electacta.2018.07.179,H
(BaO)1(CeO2)0.4(ZrO2)0.4(Dy2O3)0.1,0.026949801,799.6072607,0,1.9,5.1,https://doi.org/10.1016/j.electacta.2018.07.179,H
(BaO)1(CeO2)0.4(ZrO2)0.4(Dy2O3)0.1,0.026101572,749.0125786,0,1.9,5.1,https://doi.org/10.1016/j.electacta.2018.07.179,H
(BaO)1(CeO2)0.4(ZrO2)0.4(Dy2O3)0.1,0.025011984,701.5127436,0,1.9,5.1,https://doi.org/10.1016/j.electacta.2018.07.179,H
(BaO)1(CeO2)0.4(ZrO2)0.4(Dy2O3)0.1,0.024484367,650.2954545,0,1.9,5.1,https://doi.org/10.1016/j.electacta.2018.07.179,H
(BaO)1(CeO2)0.4(ZrO2)0.4(Dy2O3)0.1,0.023462288,600.655914,0,1.9,5.1,https://doi.org/10.1016/j.electacta.2018.07.179,H
(BaO)1(CeO2)0.4(ZrO2)0.4(Dy2O3)0.1,0.020644997,550.8276299,0,1.9,5.1,https://doi.org/10.1016/j.electacta.2018.07.179,H
(BaO)1(CeO2)0.4(ZrO2)0.4(Dy2O3)0.1,0.016681005,499.8894174,0,1.9,5.1,https://doi.org/10.1016/j.electacta.2018.07.179,H
(BaO)1(CeO2)0.4(ZrO2)0.4(Y2O3)0.1,9.64959E-05,408.6165423,0,1.9,,https://doi.org/10.1016/j.ijhydene.2011.04.106,H
(BaO)1(CeO2)0.4(ZrO2)0.4(Y2O3)0.1,0.00026703,431.1896492,0,1.9,,https://doi.org/10.1016/j.ijhydene.2011.04.106,H
(BaO)1(CeO2)0.4(ZrO2)0.4(Y2O3)0.1,0.000658739,450.8889422,0,1.9,,https://doi.org/10.1016/j.ijhydene.2011.04.106,H
(BaO)1(CeO2)0.4(ZrO2)0.4(Y2O3)0.1,0.001424509,472.2421725,0,1.9,,https://doi.org/10.1016/j.ijhydene.2011.04.106,H
(BaO)1(CeO2)0.4(ZrO2)0.4(Y2O3)0.1,0.002700867,492.7801919,0,1.9,,https://doi.org/10.1016/j.ijhydene.2011.04.106,H