Composition,Conductivity (S/cm),Temperature (degC),PO2 (%),PH2O (%),Grainsize,Ref,Carrier Type
(BaO)0.9(CaO)0.1(CeO2)0.9(Nd2O3)0.05,0.004519287,807.5860806,20,1.9,,https://doi.org/10.1016/0167-2738(91)90189-I,O+H
(BaO)0.9(CaO)0.1(CeO2)0.9(Nd2O3)0.05,0.002891415,758.6855114,20,1.9,,https://doi.org/10.1016/0167-2738(91)90189-I,O+H
(BaO)0.9(CaO)0.1(CeO2)0.9(Nd2O3)0.05,0.00181301,705.2093794,20,1.9,,https://doi.org/10.1016/0167-2738(91)90189-I,O+H
(BaO)0.9(CaO)0.1(CeO2)0.9(Nd2O3)0.05,0.001160976,655.4632496,20,1.9,,https://doi.org/10.1016/0167-2738(91)90189-I,O+H
(BaO)0.9(CaO)0.1(CeO2)0.9(Nd2O3)0.05,0.00077811,603.4464102,20,1.9,,https://doi.org/10.1016/0167-2738(91)90189-I,O+H
(BaO)0.92(CaO)0.08(CeO2)0.9(Nd2O3)0.05,0.024351019,1007.139646,20,1.9,,https://doi.org/10.1016/0167-2738(91)90189-I,O+H
(BaO)0.92(CaO)0.08(CeO2)0.9(Nd2O3)0.05,0.019715364,960.9214391,20,1.9,,https://doi.org/10.1016/0167-2738(91)90189-I,O+H
(BaO)0.92(CaO)0.08(CeO2)0.9(Nd2O3)0.05,0.01402467,912.8848421,20,1.9,,https://doi.org/10.1016/0167-2738(91)90189-I,O+H
(BaO)0.92(CaO)0.08(CeO2)0.9(Nd2O3)0.05,0.010420383,858.9312215,20,1.9,,https://doi.org/10.1016/0167-2738(91)90189-I,O+H
(BaO)0.92(CaO)0.08(CeO2)0.9(Nd2O3)0.05,0.006812588,807.5860806,20,1.9,,https://doi.org/10.1016/0167-2738(91)90189-I,O+H
(BaO)0.92(CaO)0.08(CeO2)0.9(Nd2O3)0.05,0.00454989,758.6855114,20,1.9,,https://doi.org/10.1016/0167-2738(91)90189-I,O+H
(BaO)0.92(CaO)0.08(CeO2)0.9(Nd2O3)0.05,0.002792739,705.2093794,20,1.9,,https://doi.org/10.1016/0167-2738(91)90189-I,O+H
(BaO)0.92(CaO)0.08(CeO2)0.9(Nd2O3)0.05,0.001827968,655.4632496,20,1.9,,https://doi.org/10.1016/0167-2738(91)90189-I,O+H
(BaO)0.92(CaO)0.08(CeO2)0.9(Nd2O3)0.05,0.001251179,603.4464102,20,1.9,,https://doi.org/10.1016/0167-2738(91)90189-I,O+H
(BaO)0.95(CaO)0.05(CeO2)0.9(Y2O3)0.05,0.007,600,20,3,,https://doi.org/10.1016/j.electacta.2019.02.112,H
(BaO)0.95(CaO)0.05(CeO2)0.9(Y2O3)0.05,0.013,700,20,3,,https://doi.org/10.1016/j.electacta.2019.02.112,H
(BaO)0.95(CaO)0.05(CeO2)0.9(Nd2O3)0.05,0.044591311,1007.139646,20,1.9,,https://doi.org/10.1016/0167-2738(91)90189-I,O+H
(BaO)0.95(CaO)0.05(CeO2)0.9(Nd2O3)0.05,0.034585145,960.9214391,20,1.9,,https://doi.org/10.1016/0167-2738(91)90189-I,O+H
(BaO)0.95(CaO)0.05(CeO2)0.9(Nd2O3)0.05,0.026824334,912.8848421,20,1.9,,https://doi.org/10.1016/0167-2738(91)90189-I,O+H
(BaO)0.95(CaO)0.05(CeO2)0.9(Nd2O3)0.05,0.019109705,858.9312215,20,1.9,,https://doi.org/10.1016/0167-2738(91)90189-I,O+H
(BaO)0.95(CaO)0.05(CeO2)0.9(Nd2O3)0.05,0.014211088,807.5860806,20,1.9,,https://doi.org/10.1016/0167-2738(91)90189-I,O+H
(BaO)0.95(CaO)0.05(CeO2)0.9(Nd2O3)0.05,0.008897746,758.6855114,20,1.9,,https://doi.org/10.1016/0167-2738(91)90189-I,O+H
(BaO)0.95(CaO)0.05(CeO2)0.9(Nd2O3)0.05,0.006346215,705.2093794,20,1.9,,https://doi.org/10.1016/0167-2738(91)90189-I,O+H
(BaO)0.95(CaO)0.05(CeO2)0.9(Nd2O3)0.05,0.004152651,655.4632496,20,1.9,,https://doi.org/10.1016/0167-2738(91)90189-I,O+H
(BaO)0.95(CaO)0.05(CeO2)0.9(Nd2O3)0.05,0.002292491,603.4464102,20,1.9,,https://doi.org/10.1016/0167-2738(91)90189-I,O+H
(BaO)1(CeO2)0.1(ZrO2)0.8(Y2O3)0.05,0.006296785,1001.414063,0,1.7,,https://doi.org/10.1016/S0167-2738(00)00777-3,H
(BaO)1(CeO2)0.1(ZrO2)0.8(Y2O3)0.05,0.004972171,948.9101124,0,1.7,,https://doi.org/10.1016/S0167-2738(00)00777-3,H
(BaO)1(CeO2)0.1(ZrO2)0.8(Y2O3)0.05,0.004421507,900.5611511,0,1.7,,https://doi.org/10.1016/S0167-2738(00)00777-3,H
(BaO)1(CeO2)0.1(ZrO2)0.8(Y2O3)0.05,0.003801592,848.1340206,0,1.7,,https://doi.org/10.1016/S0167-2738(00)00777-3,H
(BaO)1(CeO2)0.1(ZrO2)0.8(Y2O3)0.05,0.003159503,800.1907895,0,1.7,,https://doi.org/10.1016/S0167-2738(00)00777-3,H
(BaO)1(CeO2)0.1(ZrO2)0.8(Y2O3)0.05,0.002538884,749.7272727,0,1.7,,https://doi.org/10.1016/S0167-2738(00)00777-3,H
(BaO)1(CeO2)0.1(ZrO2)0.8(Y2O3)0.05,0.002110752,702.3363229,0,1.7,,https://doi.org/10.1016/S0167-2738(00)00777-3,H
(BaO)1(CeO2)0.1(ZrO2)0.8(Y2O3)0.05,0.001725958,651.2209632,0,1.7,,https://doi.org/10.1016/S0167-2738(00)00777-3,H
(BaO)1(CeO2)0.1(ZrO2)0.8(Y2O3)0.05,0.00143575,601.6648794,0,1.7,,https://doi.org/10.1016/S0167-2738(00)00777-3,H
(BaO)1(CeO2)0.1(ZrO2)0.8(Y2O3)0.05,0.049950994,998.4592275,20,1.7,,https://doi.org/10.1016/S0167-2738(00)00777-3,O+H
(BaO)1(CeO2)0.1(ZrO2)0.8(Y2O3)0.05,0.033946669,953.7080745,20,1.7,,https://doi.org/10.1016/S0167-2738(00)00777-3,O+H
(BaO)1(CeO2)0.1(ZrO2)0.8(Y2O3)0.05,0.022664527,900.2673267,20,1.7,,https://doi.org/10.1016/S0167-2738(00)00777-3,O+H
(BaO)1(CeO2)0.1(ZrO2)0.8(Y2O3)0.05,0.015707884,847.0378072,20,1.7,,https://doi.org/10.1016/S0167-2738(00)00777-3,O+H
(BaO)1(CeO2)0.1(ZrO2)0.8(Y2O3)0.05,0.012623042,800.3695652,20,1.7,,https://doi.org/10.1016/S0167-2738(00)00777-3,O+H
(BaO)1(CeO2)0.1(ZrO2)0.8(Y2O3)0.05,0.009425627,750.3160622,20,1.7,,https://doi.org/10.1016/S0167-2738(00)00777-3,O+H
(BaO)1(CeO2)0.1(ZrO2)0.8(Y2O3)0.05,0.007444862,698.3114754,20,1.7,,https://doi.org/10.1016/S0167-2738(00)00777-3,O+H
(BaO)1(CeO2)0.1(ZrO2)0.8(Y2O3)0.05,0.005463049,647.0310559,20,1.7,,https://doi.org/10.1016/S0167-2738(00)00777-3,O+H
(BaO)1(CeO2)0.1(ZrO2)0.8(Y2O3)0.05,0.003934005,603.4792899,20,1.7,,https://doi.org/10.1016/S0167-2738(00)00777-3,O+H
(BaO)1(CeO2)0.3(ZrO2)0.6(Y2O3)0.05,0.013287497,1001.414063,0,1.7,,https://doi.org/10.1016/S0167-2738(00)00777-3,H
(BaO)1(CeO2)0.3(ZrO2)0.6(Y2O3)0.05,0.01049161,951.2026266,0,1.7,,https://doi.org/10.1016/S0167-2738(00)00777-3,H
(BaO)1(CeO2)0.3(ZrO2)0.6(Y2O3)0.05,0.008145666,900.5611511,0,1.7,,https://doi.org/10.1016/S0167-2738(00)00777-3,H
(BaO)1(CeO2)0.3(ZrO2)0.6(Y2O3)0.05,0.006769421,850.0636833,0,1.7,,https://doi.org/10.1016/S0167-2738(00)00777-3,H
(BaO)1(CeO2)0.3(ZrO2)0.6(Y2O3)0.05,0.005257475,798.4285714,0,1.7,,https://doi.org/10.1016/S0167-2738(00)00777-3,H
(BaO)1(CeO2)0.3(ZrO2)0.6(Y2O3)0.05,0.004224479,749.7272727,0,1.7,,https://doi.org/10.1016/S0167-2738(00)00777-3,H
(BaO)1(CeO2)0.3(ZrO2)0.6(Y2O3)0.05,0.003014983,699.4292101,0,1.7,,https://doi.org/10.1016/S0167-2738(00)00777-3,H
(BaO)1(CeO2)0.3(ZrO2)0.6(Y2O3)0.05,0.002550136,651.2209632,0,1.7,,https://doi.org/10.1016/S0167-2738(00)00777-3,H
(BaO)1(CeO2)0.3(ZrO2)0.6(Y2O3)0.05,0.002015908,602.8389262,0,1.7,,https://doi.org/10.1016/S0167-2738(00)00777-3,H
(BaO)1(CeO2)0.3(ZrO2)0.6(Y2O3)0.05,0.08235734,998.4592275,20,1.7,,https://doi.org/10.1016/S0167-2738(00)00777-3,O+H
(BaO)1(CeO2)0.3(ZrO2)0.6(Y2O3)0.05,0.066131637,951.1735537,20,1.7,,https://doi.org/10.1016/S0167-2738(00)00777-3,O+H
(BaO)1(CeO2)0.3(ZrO2)0.6(Y2O3)0.05,0.051187767,902.5952381,20,1.7,,https://doi.org/10.1016/S0167-2738(00)00777-3,O+H
(BaO)1(CeO2)0.3(ZrO2)0.6(Y2O3)0.05,0.034186247,849.1590909,20,1.7,,https://doi.org/10.1016/S0167-2738(00)00777-3,O+H
(BaO)1(CeO2)0.3(ZrO2)0.6(Y2O3)0.05,0.023693131,800.3695652,20,1.7,,https://doi.org/10.1016/S0167-2738(00)00777-3,O+H
(BaO)1(CeO2)0.3(ZrO2)0.6(Y2O3)0.05,0.016431037,748.5517241,20,1.7,,https://doi.org/10.1016/S0167-2738(00)00777-3,O+H
(BaO)1(CeO2)0.3(ZrO2)0.6(Y2O3)0.05,0.010983922,698.3114754,20,1.7,,https://doi.org/10.1016/S0167-2738(00)00777-3,O+H
(BaO)1(CeO2)0.3(ZrO2)0.6(Y2O3)0.05,0.006821533,648.4618974,20,1.7,,https://doi.org/10.1016/S0167-2738(00)00777-3,O+H
(BaO)1(CeO2)0.3(ZrO2)0.6(Y2O3)0.05,0.004563666,600.8938053,20,1.7,,https://doi.org/10.1016/S0167-2738(00)00777-3,O+H
(La2O3)0.35(SrO)0.3(Ga2O3)0.475(MgO)0.05,0.032,800,1.00E-03,0,,https://doi.org/10.1111/j.1151-2916.1998.tb02662.x,O
(La2O3)0.35(SrO)0.3(Ga2O3)0.475(MgO)0.05,0.018,702,1.00E-03,0,,https://doi.org/10.1111/j.1151-2916.1998.tb02662.x,O
(La2O3)0.35(SrO)0.3(Ga2O3)0.475(MgO)0.05,0.008,595,1.00E-03,0,,https://doi.org/10.1111/j.1151-2916.1998.tb02662.x,O
(La2O3)0.375(SrO)0.25(Ga2O3)0.475(MgO)0.05,0.062,800,1.00E-03,0,,https://doi.org/10.1111/j.1151-2916.1998.tb02662.x,O
(La2O3)0.375(SrO)0.25(Ga2O3)0.475(MgO)0.05,0.035,702,1.00E-03,0,,https://doi.org/10.1111/j.1151-2916.1998.tb02662.x,O
(La2O3)0.375(SrO)0.25(Ga2O3)0.475(MgO)0.05,0.016,595,1.00E-03,0,,https://doi.org/10.1111/j.1151-2916.1998.tb02662.x,O
(La2O3)0.4(SrO)0.2(Ga2O3)0.475(MgO)0.05,0.096,800,1.00E-03,0,,https://doi.org/10.1111/j.1151-2916.1998.tb02662.x,O
(La2O3)0.4(SrO)0.2(Ga2O3)0.475(MgO)0.05,0.055,702,1.00E-03,0,,https://doi.org/10.1111/j.1151-2916.1998.tb02662.x,O
(La2O3)0.4(SrO)0.2(Ga2O3)0.475(MgO)0.05,0.025,595,1.00E-03,0,,https://doi.org/10.1111/j.1151-2916.1998.tb02662.x,O
(La2O3)0.425(SrO)0.15(Ga2O3)0.475(MgO)0.05,0.126,800,1.00E-03,0,,https://doi.org/10.1111/j.1151-2916.1998.tb02662.x,O
(La2O3)0.425(SrO)0.15(Ga2O3)0.475(MgO)0.05,0.069,702,1.00E-03,0,,https://doi.org/10.1111/j.1151-2916.1998.tb02662.x,O
(La2O3)0.425(SrO)0.15(Ga2O3)0.475(MgO)0.05,0.031,595,1.00E-03,0,,https://doi.org/10.1111/j.1151-2916.1998.tb02662.x,O
(La2O3)0.45(SrO)0.1(Ga2O3)0.475(MgO)0.05,0.177827941,900,1.00E-17,0,,https://doi.org/10.1021/ja00088a016,O
(La2O3)0.45(SrO)0.1(Ga2O3)0.475(MgO)0.05,0.177827941,900,1.00E-12,0,,https://doi.org/10.1021/ja00088a016,O
(La2O3)0.45(SrO)0.1(Ga2O3)0.475(MgO)0.05,0.177827941,900,1.00E-07,0,,https://doi.org/10.1021/ja00088a016,O
(La2O3)0.45(SrO)0.1(Ga2O3)0.475(MgO)0.05,0.177827941,900,2.00E+01,0,,https://doi.org/10.1021/ja00088a016,O
(La2O3)0.45(SrO)0.1(Ga2O3)0.475(MgO)0.05,0.196461328,1000,1.00E-02,0,,https://doi.org/10.1021/ja00088a016,O
(La2O3)0.45(SrO)0.1(Ga2O3)0.475(MgO)0.05,0.084,800,1.00E-03,0,,https://doi.org/10.1111/j.1151-2916.1998.tb02662.x,O
(La2O3)0.45(SrO)0.1(Ga2O3)0.475(MgO)0.05,0.045,702,1.00E-03,0,,https://doi.org/10.1111/j.1151-2916.1998.tb02662.x,O
(La2O3)0.45(SrO)0.1(Ga2O3)0.475(MgO)0.05,0.02,595,1.00E-03,0,,https://doi.org/10.1111/j.1151-2916.1998.tb02662.x,O
(La2O3)0.475(SrO)0.05(Ga2O3)0.475(MgO)0.05,0.053,800,1.00E-03,0,,https://doi.org/10.1111/j.1151-2916.1998.tb02662.x,O
(La2O3)0.475(SrO)0.05(Ga2O3)0.475(MgO)0.05,0.029,702,1.00E-03,0,,https://doi.org/10.1111/j.1151-2916.1998.tb02662.x,O
(La2O3)0.475(SrO)0.05(Ga2O3)0.475(MgO)0.05,0.013,595,1.00E-03,0,,https://doi.org/10.1111/j.1151-2916.1998.tb02662.x,O
(BaO)1(CeO2)0.45(ZrO2)0.45(Sc2O3)0.05,0.000690368,850.1884058,0,3,,https://doi.org/10.1016/j.ssi.2007.02.004,H
(BaO)1(CeO2)0.45(ZrO2)0.45(Sc2O3)0.05,0.000558633,803.3888889,0,3,,https://doi.org/10.1016/j.ssi.2007.02.004,H
(BaO)1(CeO2)0.45(ZrO2)0.45(Sc2O3)0.05,0.00042873,753.4900662,0,3,,https://doi.org/10.1016/j.ssi.2007.02.004,H
(BaO)1(CeO2)0.45(ZrO2)0.45(Sc2O3)0.05,0.000385662,708.0126582,0,3,,https://doi.org/10.1016/j.ssi.2007.02.004,H
(BaO)1(CeO2)0.45(ZrO2)0.45(Sc2O3)0.05,0.000295981,666.3939394,0,3,,https://doi.org/10.1016/j.ssi.2007.02.004,H
(BaO)1(CeO2)0.45(ZrO2)0.45(Sc2O3)0.05,0.000252522,617.8045977,0,3,,https://doi.org/10.1016/j.ssi.2007.02.004,H
(BaO)1(CeO2)0.45(ZrO2)0.45(Sc2O3)0.05,9.73881E-05,569.3913043,0,3,,https://doi.org/10.1016/j.ssi.2007.02.004,H
(BaO)1(CeO2)0.45(ZrO2)0.45(Sc2O3)0.05,6.37673E-05,525.9690722,0,3,,https://doi.org/10.1016/j.ssi.2007.02.004,H
(BaO)1(CeO2)0.45(ZrO2)0.45(Sc2O3)0.05,3.75589E-05,475.7922705,0,3,,https://doi.org/10.1016/j.ssi.2007.02.004,H
(BaO)1(CeO2)0.45(ZrO2)0.45(Sc2O3)0.05,2.09816E-05,425.1981982,0,3,,https://doi.org/10.1016/j.ssi.2007.02.004,H
(BaO)1(CeO2)0.45(ZrO2)0.45(Sc2O3)0.05,7.67463E-06,378.2605042,0,3,,https://doi.org/10.1016/j.ssi.2007.02.004,H
(BaO)1(CeO2)0.45(ZrO2)0.45(Sc2O3)0.05,2.66249E-06,327.7751938,0,3,,https://doi.org/10.1016/j.ssi.2007.02.004,H
(BaO)1(CeO2)0.45(ZrO2)0.45(Sc2O3)0.05,0.000502515,850.1884058,0,0,,https://doi.org/10.1016/j.ssi.2007.02.004,H
(BaO)1(CeO2)0.45(ZrO2)0.45(Sc2O3)0.05,0.000406626,803.3888889,0,0,,https://doi.org/10.1016/j.ssi.2007.02.004,H
(BaO)1(CeO2)0.45(ZrO2)0.45(Sc2O3)0.05,0.000280722,753.4900662,0,0,,https://doi.org/10.1016/j.ssi.2007.02.004,H
(BaO)1(CeO2)0.45(ZrO2)0.45(Sc2O3)0.05,0.00015682,708.0126582,0,0,,https://doi.org/10.1016/j.ssi.2007.02.004,H
(BaO)1(CeO2)0.45(ZrO2)0.45(Sc2O3)0.05,0.000102682,660.7349398,0,0,,https://doi.org/10.1016/j.ssi.2007.02.004,H
(BaO)1(CeO2)0.45(ZrO2)0.45(Sc2O3)0.05,7.47417E-05,617.8045977,0,0,,https://doi.org/10.1016/j.ssi.2007.02.004,H
(BaO)1(CeO2)0.45(ZrO2)0.45(Sc2O3)0.05,4.8939E-05,569.3913043,0,0,,https://doi.org/10.1016/j.ssi.2007.02.004,H
(BaO)1(CeO2)0.45(ZrO2)0.45(Sc2O3)0.05,2.88251E-05,525.9690722,0,0,,https://doi.org/10.1016/j.ssi.2007.02.004,H
(BaO)1(CeO2)0.45(ZrO2)0.45(Sc2O3)0.05,1.79008E-05,475.7922705,0,0,,https://doi.org/10.1016/j.ssi.2007.02.004,H
(BaO)1(CeO2)0.45(ZrO2)0.45(Sc2O3)0.05,8.99545E-06,428.3574661,0,0,,https://doi.org/10.1016/j.ssi.2007.02.004,H
(BaO)1(CeO2)0.45(ZrO2)0.45(Sc2O3)0.05,3.65779E-06,375.5355649,0,0,,https://doi.org/10.1016/j.ssi.2007.02.004,H
(SrO)0.7(Y2O3)0.15(V2O3)0.45(Al2O3)0.05,102.9224226,1060.560928,0,0,,https://doi.org/10.1016/j.ssi.2013.06.002,E
(SrO)0.7(Y2O3)0.15(V2O3)0.45(Al2O3)0.05,112.4993466,1011.104202,0,0,,https://doi.org/10.1016/j.ssi.2013.06.002,E
(SrO)0.7(Y2O3)0.15(V2O3)0.45(Al2O3)0.05,124.8619175,965.1861563,0,0,,https://doi.org/10.1016/j.ssi.2013.06.002,E
(SrO)0.7(Y2O3)0.15(V2O3)0.45(Al2O3)0.05,136.135064,920.0696967,0,0,,https://doi.org/10.1016/j.ssi.2013.06.002,E
(SrO)0.7(Y2O3)0.15(V2O3)0.45(Al2O3)0.05,151.0914886,867.6644599,0,0,,https://doi.org/10.1016/j.ssi.2013.06.002,E
(SrO)0.7(Y2O3)0.15(V2O3)0.45(Al2O3)0.05,169.8360967,824.4466806,0,0,,https://doi.org/10.1016/j.ssi.2013.06.002,E
(SrO)0.7(Y2O3)0.15(V2O3)0.45(Al2O3)0.05,188.0182473,771.5511511,0,0,,https://doi.org/10.1016/j.ssi.2013.06.002,E
(SrO)0.7(Y2O3)0.15(V2O3)0.45(Al2O3)0.05,215.1394232,727.4922422,0,0,,https://doi.org/10.1016/j.ssi.2013.06.002,E
(SrO)0.7(Y2O3)0.15(V2O3)0.45(Al2O3)0.05,245.5500348,680.0135719,0,0,,https://doi.org/10.1016/j.ssi.2013.06.002,E
(SrO)0.7(Y2O3)0.15(V2O3)0.45(Al2O3)0.05,288.2106335,628.6677246,0,0,,https://doi.org/10.1016/j.ssi.2013.06.002,E
(SrO)0.7(Y2O3)0.15(V2O3)0.45(Al2O3)0.05,328.9425085,585.7420803,0,0,,https://doi.org/10.1016/j.ssi.2013.06.002,E
(SrO)0.7(Y2O3)0.15(V2O3)0.45(Al2O3)0.05,381.2150168,535.0638306,0,0,,https://doi.org/10.1016/j.ssi.2013.06.002,E
(SrO)0.7(Y2O3)0.15(V2O3)0.45(Al2O3)0.05,428.5090514,486.7617995,0,0,,https://doi.org/10.1016/j.ssi.2013.06.002,E
(SrO)0.7(Y2O3)0.15(V2O3)0.45(Al2O3)0.05,496.5923215,437.9867358,0,0,,https://doi.org/10.1016/j.ssi.2013.06.002,E
(SrO)0.8(Y2O3)0.1(V2O3)0.45(Al2O3)0.05,126.4590748,1064.112906,0,0,,https://doi.org/10.1016/j.ssi.2013.06.002,E
(SrO)0.8(Y2O3)0.1(V2O3)0.45(Al2O3)0.05,140.3524506,1011.104202,0,0,,https://doi.org/10.1016/j.ssi.2013.06.002,E
(SrO)0.8(Y2O3)0.1(V2O3)0.45(Al2O3)0.05,155.3781692,965.1861563,0,0,,https://doi.org/10.1016/j.ssi.2013.06.002,E
(SrO)0.8(Y2O3)0.1(V2O3)0.45(Al2O3)0.05,172.4487299,917.2409762,0,0,,https://doi.org/10.1016/j.ssi.2013.06.002,E
(SrO)0.8(Y2O3)0.1(V2O3)0.45(Al2O3)0.05,196.8248821,870.2621843,0,0,,https://doi.org/10.1016/j.ssi.2013.06.002,E
(SrO)0.8(Y2O3)0.1(V2O3)0.45(Al2O3)0.05,221.243235,819.6692818,0,0,,https://doi.org/10.1016/j.ssi.2013.06.002,E
(SrO)0.8(Y2O3)0.1(V2O3)0.45(Al2O3)0.05,252.5166389,775.9151071,0,0,,https://doi.org/10.1016/j.ssi.2013.06.002,E
(SrO)0.8(Y2O3)0.1(V2O3)0.45(Al2O3)0.05,283.8441841,727.4922422,0,0,,https://doi.org/10.1016/j.ssi.2013.06.002,E
(SrO)0.8(Y2O3)0.1(V2O3)0.45(Al2O3)0.05,324.7880188,681.5236307,0,0,,https://doi.org/10.1016/j.ssi.2013.06.002,E
(SrO)0.8(Y2O3)0.1(V2O3)0.45(Al2O3)0.05,375.4395321,633.5517401,0,0,,https://doi.org/10.1016/j.ssi.2013.06.002,E
(SrO)0.8(Y2O3)0.1(V2O3)0.45(Al2O3)0.05,428.5090514,571.7743946,0,0,,https://doi.org/10.1016/j.ssi.2013.06.002,E
(SrO)0.8(Y2O3)0.1(V2O3)0.45(Al2O3)0.05,490.3204422,537.4548678,0,0,,https://doi.org/10.1016/j.ssi.2013.06.002,E
(SrO)0.8(Y2O3)0.1(V2O3)0.45(Al2O3)0.05,575.5061911,486.7617995,0,0,,https://doi.org/10.1016/j.ssi.2013.06.002,E
(SrO)0.8(Y2O3)0.1(V2O3)0.45(Al2O3)0.05,677.1891638,438.9951243,0,0,,https://doi.org/10.1016/j.ssi.2013.06.002,E
(SrO)0.8(Y2O3)0.1(V2O3)0.45(Al2O3)0.05,176.9416203,900,7.93232E-19,0,,https://doi.org/10.1016/j.ssi.2013.06.002,E
(SrO)0.8(Y2O3)0.1(V2O3)0.45(Al2O3)0.05,178.587065,900,1.24871E-18,0,,https://doi.org/10.1016/j.ssi.2013.06.002,E
(SrO)0.8(Y2O3)0.1(V2O3)0.45(Al2O3)0.05,184.6460408,900,5.02597E-18,0,,https://doi.org/10.1016/j.ssi.2013.06.002,E
(SrO)0.8(Y2O3)0.1(V2O3)0.45(Al2O3)0.05,194.8363567,900,1.17303E-16,0,,https://doi.org/10.1016/j.ssi.2013.06.002,E
(SrO)0.8(Y2O3)0.1(V2O3)0.45(Al2O3)0.05,197.0107843,900,7.01811E-16,0,,https://doi.org/10.1016/j.ssi.2013.06.002,E
(SrO)0.8(Y2O3)0.1(V2O3)0.45(Al2O3)0.05,197.0107843,900,9.2045E-16,0,,https://doi.org/10.1016/j.ssi.2013.06.002,E
(SrO)0.8(Y2O3)0.1(V2O3)0.45(Al2O3)0.05,197.0107843,900,2.82475E-15,0,,https://doi.org/10.1016/j.ssi.2013.06.002,E
(SrO)0.8(Y2O3)0.1(V2O3)0.45(Al2O3)0.05,197.0107843,900,2.90703E-14,0,,https://doi.org/10.1016/j.ssi.2013.06.002,E
(SrO)0.8(Y2O3)0.1(V2O3)0.45(Al2O3)0.05,246.2011062,700,2.03775E-23,0,,https://doi.org/10.1016/j.ssi.2013.06.002,E
(SrO)0.8(Y2O3)0.1(V2O3)0.45(Al2O3)0.05,251.2869875,700,4.22795E-23,0,,https://doi.org/10.1016/j.ssi.2013.06.002,E
(SrO)0.8(Y2O3)0.1(V2O3)0.45(Al2O3)0.05,254.1031214,700,1.63983E-22,0,,https://doi.org/10.1016/j.ssi.2013.06.002,E
(SrO)0.8(Y2O3)0.1(V2O3)0.45(Al2O3)0.05,262.2587579,700,2.46689E-21,0,,https://doi.org/10.1016/j.ssi.2013.06.002,E
(SrO)0.8(Y2O3)0.1(V2O3)0.45(Al2O3)0.05,259.8364057,700,3.46585E-21,0,,https://doi.org/10.1016/j.ssi.2013.06.002,E
(SrO)0.8(Y2O3)0.1(V2O3)0.45(Al2O3)0.05,262.2587579,700,1.53313E-20,0,,https://doi.org/10.1016/j.ssi.2013.06.002,E
(SrO)0.8(Y2O3)0.1(V2O3)0.45(Al2O3)0.05,265.2039572,700,2.72659E-20,0,,https://doi.org/10.1016/j.ssi.2013.06.002,E
(SrO)0.8(Y2O3)0.1(V2O3)0.45(Al2O3)0.05,262.2587579,700,1.17373E-19,0,,https://doi.org/10.1016/j.ssi.2013.06.002,E
(SrO)0.8(Y2O3)0.1(V2O3)0.45(Al2O3)0.05,262.2587579,700,1.52676E-19,0,,https://doi.org/10.1016/j.ssi.2013.06.002,E
(La2O3)0.45(SrO)0.1(Ga2O3)0.45(In2O3)0.05,0.272397497,981.2706591,0.01,0,,https://doi.org/10.1021/ja00088a016,O
(La2O3)0.45(SrO)0.1(Ga2O3)0.45(In2O3)0.05,0.218447259,923.0407985,0.01,0,,https://doi.org/10.1021/ja00088a016,O
(La2O3)0.45(SrO)0.1(Ga2O3)0.45(In2O3)0.05,0.165019567,876.0122751,0.01,0,,https://doi.org/10.1021/ja00088a016,O
(La2O3)0.45(SrO)0.1(Ga2O3)0.45(In2O3)0.05,0.124634788,824.217602,0.01,0,,https://doi.org/10.1021/ja00088a016,O
(La2O3)0.45(SrO)0.1(Ga2O3)0.45(In2O3)0.05,0.086896982,771.9010286,0.01,0,,https://doi.org/10.1021/ja00088a016,O
(La2O3)0.45(SrO)0.1(Ga2O3)0.45(In2O3)0.05,0.064325241,724.3266969,0.01,0,,https://doi.org/10.1021/ja00088a016,O
(La2O3)0.45(SrO)0.1(Ga2O3)0.45(In2O3)0.05,0.040571834,668.6151808,0.01,0,,https://doi.org/10.1021/ja00088a016,O
(La2O3)0.45(SrO)0.1(Ga2O3)0.45(In2O3)0.05,0.025084036,618.8038144,0.01,0,,https://doi.org/10.1021/ja00088a016,O
(La2O3)0.45(SrO)0.1(Ga2O3)0.45(In2O3)0.05,0.01375237,564.2920253,0.01,0,,https://doi.org/10.1021/ja00088a016,O
(La2O3)0.45(SrO)0.1(Ga2O3)0.45(In2O3)0.05,0.005369476,514.7084831,0.01,0,,https://doi.org/10.1021/ja00088a016,O
(La2O3)0.45(SrO)0.1(Ga2O3)0.45(Al2O3)0.05,0.138159221,978.0338928,0.01,0,,https://doi.org/10.1021/ja00088a016,O
(La2O3)0.45(SrO)0.1(Ga2O3)0.45(Al2O3)0.05,0.113044769,926.6360653,0.01,0,,https://doi.org/10.1021/ja00088a016,O
(La2O3)0.45(SrO)0.1(Ga2O3)0.45(Al2O3)0.05,0.090655458,873.2606355,0.01,0,,https://doi.org/10.1021/ja00088a016,O
(La2O3)0.45(SrO)0.1(Ga2O3)0.45(Al2O3)0.05,0.065780966,816.2684267,0.01,0,,https://doi.org/10.1021/ja00088a016,O
(La2O3)0.45(SrO)0.1(Ga2O3)0.45(Al2O3)0.05,0.049679332,767.1298333,0.01,0,,https://doi.org/10.1021/ja00088a016,O
(La2O3)0.45(SrO)0.1(Ga2O3)0.45(Al2O3)0.05,0.03604572,717.7352216,0.01,0,,https://doi.org/10.1021/ja00088a016,O
(La2O3)0.45(SrO)0.1(Ga2O3)0.45(Al2O3)0.05,0.022292982,672.8666297,0.01,0,,https://doi.org/10.1021/ja00088a016,O
(La2O3)0.45(SrO)0.1(Ga2O3)0.45(Al2O3)0.05,0.013781112,618.9615876,0.01,0,,https://doi.org/10.1021/ja00088a016,O
(La2O3)0.45(SrO)0.1(Ga2O3)0.45(Al2O3)0.05,0.007708381,566.0337683,0.01,0,,https://doi.org/10.1021/ja00088a016,O
(La2O3)0.45(SrO)0.1(Ga2O3)0.45(Al2O3)0.05,0.003823397,510.5421876,0.01,0,,https://doi.org/10.1021/ja00088a016,O
(Nd2O3)0.45(CaO)0.1(Al2O3)0.45(Ga2O3)0.05,0.011652542,950,4.48E-20,0,,10.1149/1.2059351,O
(Nd2O3)0.45(CaO)0.1(Al2O3)0.45(Ga2O3)0.05,0.011359273,950,1.88E-17,0,,10.1149/1.2059351,O
(Nd2O3)0.45(CaO)0.1(Al2O3)0.45(Ga2O3)0.05,0.011751971,950,3.29E-12,0,,10.1149/1.2059351,O