Composition,Conductivity (S/cm),Temperature (degC),PO2 (%),PH2O (%),Grainsize,Ref,Carrier Type
(La2O3)0.45(SrO)0.1(Al2O3)0.5,0.001529991,803.8143261,0,1.9,,https://doi.org/10.1016/j.electacta.2014.01.113,O
(La2O3)0.45(SrO)0.1(Al2O3)0.5,0.000927175,704.3310522,0,1.9,,https://doi.org/10.1016/j.electacta.2014.01.113,O
(La2O3)0.45(SrO)0.1(Al2O3)0.5,0.000483572,603.1503067,0,1.9,,https://doi.org/10.1016/j.electacta.2014.01.113,O
(La2O3)0.45(SrO)0.1(Al2O3)0.5,0.00030831,553.7004342,0,1.9,,https://doi.org/10.1016/j.electacta.2014.01.113,O
(La2O3)0.45(SrO)0.1(Al2O3)0.5,0.000186978,504.7399592,0,1.9,,https://doi.org/10.1016/j.electacta.2014.01.113,O
(La2O3)0.45(SrO)0.1(Al2O3)0.5,0.0001026,452.8576874,0,1.9,,https://doi.org/10.1016/j.electacta.2014.01.113,O
(La2O3)0.45(SrO)0.1(Al2O3)0.5,4.61246E-05,401.4391972,0,1.9,,https://doi.org/10.1016/j.electacta.2014.01.113,O
(La2O3)0.45(SrO)0.1(Al2O3)0.5,1.69884E-05,351.6582832,0,1.9,,https://doi.org/10.1016/j.electacta.2014.01.113,O
(BaO)0.95(CaO)0.05(Fe2O3)0.5,1.653543307,297.9591837,20,0,,https://doi.org/10.1016/j.jpowsour.2016.05.089,O+E
(BaO)0.95(CaO)0.05(Fe2O3)0.5,1.811023622,310.2040816,20,0,,https://doi.org/10.1016/j.jpowsour.2016.05.089,O+E
(BaO)0.95(CaO)0.05(Fe2O3)0.5,1.929133858,320.4081633,20,0,,https://doi.org/10.1016/j.jpowsour.2016.05.089,O+E
(BaO)0.95(CaO)0.05(Fe2O3)0.5,2.165354331,328.5714286,20,0,,https://doi.org/10.1016/j.jpowsour.2016.05.089,O+E
(BaO)0.95(CaO)0.05(Fe2O3)0.5,2.322834646,338.7755102,20,0,,https://doi.org/10.1016/j.jpowsour.2016.05.089,O+E
(BaO)0.95(CaO)0.05(Fe2O3)0.5,2.559055118,348.9795918,20,0,,https://doi.org/10.1016/j.jpowsour.2016.05.089,O+E
(BaO)0.95(CaO)0.05(Fe2O3)0.5,2.874015748,359.1836735,20,0,,https://doi.org/10.1016/j.jpowsour.2016.05.089,O+E
(BaO)0.95(CaO)0.05(Fe2O3)0.5,3.149606299,367.3469388,20,0,,https://doi.org/10.1016/j.jpowsour.2016.05.089,O+E
(BaO)0.95(CaO)0.05(Fe2O3)0.5,3.385826772,379.5918367,20,0,,https://doi.org/10.1016/j.jpowsour.2016.05.089,O+E
(BaO)0.95(CaO)0.05(Fe2O3)0.5,3.503937008,387.755102,20,0,,https://doi.org/10.1016/j.jpowsour.2016.05.089,O+E
(BaO)0.95(CaO)0.05(Fe2O3)0.5,3.779527559,397.9591837,20,0,,https://doi.org/10.1016/j.jpowsour.2016.05.089,O+E
(BaO)0.95(CaO)0.05(Fe2O3)0.5,3.937007874,408.1632653,20,0,,https://doi.org/10.1016/j.jpowsour.2016.05.089,O+E
(BaO)0.95(CaO)0.05(Fe2O3)0.5,4.133858268,420.4081633,20,0,,https://doi.org/10.1016/j.jpowsour.2016.05.089,O+E
(BaO)0.95(CaO)0.05(Fe2O3)0.5,4.251968504,430.6122449,20,0,,https://doi.org/10.1016/j.jpowsour.2016.05.089,O+E
(BaO)0.95(CaO)0.05(Fe2O3)0.5,4.251968504,440.8163265,20,0,,https://doi.org/10.1016/j.jpowsour.2016.05.089,O+E
(BaO)0.95(CaO)0.05(Fe2O3)0.5,4.251968504,451.0204082,20,0,,https://doi.org/10.1016/j.jpowsour.2016.05.089,E
(BaO)0.95(CaO)0.05(Fe2O3)0.5,4.212598425,461.2244898,20,0,,https://doi.org/10.1016/j.jpowsour.2016.05.089,E
(BaO)0.95(CaO)0.05(Fe2O3)0.5,4.133858268,473.4693878,20,0,,https://doi.org/10.1016/j.jpowsour.2016.05.089,E
(BaO)0.95(CaO)0.05(Fe2O3)0.5,3.976377953,485.7142857,20,0,,https://doi.org/10.1016/j.jpowsour.2016.05.089,E
(BaO)0.95(CaO)0.05(Fe2O3)0.5,3.818897638,495.9183673,20,0,,https://doi.org/10.1016/j.jpowsour.2016.05.089,E
(BaO)0.95(CaO)0.05(Fe2O3)0.5,3.700787402,508.1632653,20,0,,https://doi.org/10.1016/j.jpowsour.2016.05.089,E
(BaO)0.95(CaO)0.05(Fe2O3)0.5,3.582677165,520.4081633,20,0,,https://doi.org/10.1016/j.jpowsour.2016.05.089,E
(BaO)0.95(CaO)0.05(Fe2O3)0.5,3.385826772,530.6122449,20,0,,https://doi.org/10.1016/j.jpowsour.2016.05.089,E
(BaO)0.95(CaO)0.05(Fe2O3)0.5,3.267716535,538.7755102,20,0,,https://doi.org/10.1016/j.jpowsour.2016.05.089,E
(BaO)0.95(CaO)0.05(Fe2O3)0.5,3.149606299,551.0204082,20,0,,https://doi.org/10.1016/j.jpowsour.2016.05.089,E
(BaO)0.95(CaO)0.05(Fe2O3)0.5,2.992125984,565.3061224,20,0,,https://doi.org/10.1016/j.jpowsour.2016.05.089,E
(BaO)0.95(CaO)0.05(Fe2O3)0.5,2.834645669,577.5510204,20,0,,https://doi.org/10.1016/j.jpowsour.2016.05.089,E
(BaO)0.95(CaO)0.05(Fe2O3)0.5,2.755905512,587.755102,20,0,,https://doi.org/10.1016/j.jpowsour.2016.05.089,E
(BaO)0.95(CaO)0.05(Fe2O3)0.5,2.637795276,600,20,0,,https://doi.org/10.1016/j.jpowsour.2016.05.089,E
(BaO)0.95(CaO)0.05(Fe2O3)0.5,2.519685039,616.3265306,20,0,,https://doi.org/10.1016/j.jpowsour.2016.05.089,E
(BaO)0.95(CaO)0.05(Fe2O3)0.5,2.401574803,628.5714286,20,0,,https://doi.org/10.1016/j.jpowsour.2016.05.089,E
(BaO)0.95(CaO)0.05(Fe2O3)0.5,2.322834646,642.8571429,20,0,,https://doi.org/10.1016/j.jpowsour.2016.05.089,E
(BaO)0.95(CaO)0.05(Fe2O3)0.5,2.244094488,655.1020408,20,0,,https://doi.org/10.1016/j.jpowsour.2016.05.089,E
(BaO)0.95(CaO)0.05(Fe2O3)0.5,2.204724409,665.3061224,20,0,,https://doi.org/10.1016/j.jpowsour.2016.05.089,E
(BaO)0.95(CaO)0.05(Fe2O3)0.5,2.204724409,681.6326531,20,0,,https://doi.org/10.1016/j.jpowsour.2016.05.089,E
(BaO)0.95(CaO)0.05(Fe2O3)0.5,2.165354331,695.9183673,20,0,,https://doi.org/10.1016/j.jpowsour.2016.05.089,E
(BaO)0.95(CaO)0.05(Fe2O3)0.5,2.125984252,710.2040816,20,0,,https://doi.org/10.1016/j.jpowsour.2016.05.089,E
(BaO)0.95(CaO)0.05(Fe2O3)0.5,2.047244094,726.5306122,20,0,,https://doi.org/10.1016/j.jpowsour.2016.05.089,E
(BaO)0.95(CaO)0.05(Fe2O3)0.5,2.007874016,740.8163265,20,0,,https://doi.org/10.1016/j.jpowsour.2016.05.089,E
(BaO)0.95(CaO)0.05(Fe2O3)0.5,1.968503937,755.1020408,20,0,,https://doi.org/10.1016/j.jpowsour.2016.05.089,E
(BaO)0.95(CaO)0.05(Fe2O3)0.5,1.929133858,765.3061224,20,0,,https://doi.org/10.1016/j.jpowsour.2016.05.089,E
(BaO)0.95(CaO)0.05(Fe2O3)0.5,1.88976378,773.4693878,20,0,,https://doi.org/10.1016/j.jpowsour.2016.05.089,E
(BaO)0.95(CaO)0.05(Fe2O3)0.5,1.850393701,779.5918367,20,0,,https://doi.org/10.1016/j.jpowsour.2016.05.089,E
(BaO)0.95(CaO)0.05(Fe2O3)0.5,1.850393701,789.7959184,20,0,,https://doi.org/10.1016/j.jpowsour.2016.05.089,E
(BaO)0.95(CaO)0.05(Fe2O3)0.5,1.850393701,800,20,0,,https://doi.org/10.1016/j.jpowsour.2016.05.089,E
(BaO)0.95(CaO)0.05(Fe2O3)0.5,1.811023622,810.2040816,20,0,,https://doi.org/10.1016/j.jpowsour.2016.05.089,E
(BaO)0.95(CaO)0.05(Fe2O3)0.5,1.771653543,822.4489796,20,0,,https://doi.org/10.1016/j.jpowsour.2016.05.089,E
(BaO)0.95(CaO)0.05(Fe2O3)0.5,1.732283465,832.6530612,20,0,,https://doi.org/10.1016/j.jpowsour.2016.05.089,E
(BaO)0.95(CaO)0.05(Fe2O3)0.5,1.771653543,840.8163265,20,0,,https://doi.org/10.1016/j.jpowsour.2016.05.089,E
(BaO)0.95(CaO)0.05(Fe2O3)0.5,1.732283465,853.0612245,20,0,,https://doi.org/10.1016/j.jpowsour.2016.05.089,E
(BaO)0.95(CaO)0.05(Fe2O3)0.5,1.732283465,861.2244898,20,0,,https://doi.org/10.1016/j.jpowsour.2016.05.089,E
(BaO)0.95(CaO)0.05(Fe2O3)0.5,1.732283465,873.4693878,20,0,,https://doi.org/10.1016/j.jpowsour.2016.05.089,E
(BaO)0.95(CaO)0.05(Fe2O3)0.5,1.692913386,883.6734694,20,0,,https://doi.org/10.1016/j.jpowsour.2016.05.089,E
(BaO)0.95(CaO)0.05(Fe2O3)0.5,1.653543307,897.9591837,20,0,,https://doi.org/10.1016/j.jpowsour.2016.05.089,E
(Nd2O3)0.475(CaO)0.05(Al2O3)0.5,0.003021013,950,1.00E-03,0,,10.1149/1.2059351,O
(La2O3)0.475(SrO)0.05(Mn2O3)0.5,96.76321153,1147.378926,20,0,,https://doi.org/10.1111/j.1151-2916.1993.tb03645.x,O+E
(La2O3)0.475(SrO)0.05(Mn2O3)0.5,96.85163906,1091.199142,20,0,,https://doi.org/10.1111/j.1151-2916.1993.tb03645.x,O+E
(La2O3)0.475(SrO)0.05(Mn2O3)0.5,99.80642951,1049.254007,20,0,,https://doi.org/10.1111/j.1151-2916.1993.tb03645.x,O+E
(La2O3)0.475(SrO)0.05(Mn2O3)0.5,92.97803085,991.3122077,20,0,,https://doi.org/10.1111/j.1151-2916.1993.tb03645.x,O+E
(La2O3)0.475(SrO)0.05(Mn2O3)0.5,93.91715442,929.5533019,20,0,,https://doi.org/10.1111/j.1151-2916.1993.tb03645.x,O+E
(La2O3)0.475(SrO)0.05(Mn2O3)0.5,92.71971314,808.8327044,20,0,,https://doi.org/10.1111/j.1151-2916.1993.tb03645.x,O+E
(La2O3)0.475(SrO)0.05(Mn2O3)0.5,84.38982008,745.1258772,20,0,,https://doi.org/10.1111/j.1151-2916.1993.tb03645.x,O+E
(La2O3)0.475(SrO)0.05(Mn2O3)0.5,72.80989601,662.4921614,20,0,,https://doi.org/10.1111/j.1151-2916.1993.tb03645.x,O+E
(La2O3)0.475(SrO)0.05(Mn2O3)0.5,66.05082556,575.145929,20,0,,https://doi.org/10.1111/j.1151-2916.1993.tb03645.x,O+E
(La2O3)0.475(SrO)0.05(Mn2O3)0.5,52.73202481,475.8721363,20,0,,https://doi.org/10.1111/j.1151-2916.1993.tb03645.x,O+E
(La2O3)0.475(SrO)0.05(Mn2O3)0.5,27.34271691,319.3239649,20,0,,https://doi.org/10.1111/j.1151-2916.1993.tb03645.x,O+E
(La2O3)0.475(SrO)0.05(Mn2O3)0.5,16.06589703,207.2665215,20,0,,https://doi.org/10.1111/j.1151-2916.1993.tb03645.x,O+E
(La2O3)0.475(SrO)0.05(Cr2O3)0.5,2.853414257,1323.451025,20,0,,https://doi.org/10.1111/j.1151-2916.1993.tb03645.x,O+E
(La2O3)0.475(SrO)0.05(Cr2O3)0.5,2.703120329,1268.472824,20,0,,https://doi.org/10.1111/j.1151-2916.1993.tb03645.x,O+E
(La2O3)0.475(SrO)0.05(Cr2O3)0.5,2.678304556,1153.920855,20,0,,https://doi.org/10.1111/j.1151-2916.1993.tb03645.x,O+E
(La2O3)0.475(SrO)0.05(Cr2O3)0.5,2.680877029,1035.829905,20,0,,https://doi.org/10.1111/j.1151-2916.1993.tb03645.x,O+E
(La2O3)0.475(SrO)0.05(Cr2O3)0.5,2.546346361,935.7643199,20,0,,https://doi.org/10.1111/j.1151-2916.1993.tb03645.x,O+E
(La2O3)0.475(SrO)0.05(Cr2O3)0.5,2.318060653,840.5930488,20,0,,https://doi.org/10.1111/j.1151-2916.1993.tb03645.x,O+E
(La2O3)0.475(SrO)0.05(Cr2O3)0.5,2.231666084,743.7271639,20,0,,https://doi.org/10.1111/j.1151-2916.1993.tb03645.x,O+E
(La2O3)0.475(SrO)0.05(Cr2O3)0.5,2.006044197,637.0195937,20,0,,https://doi.org/10.1111/j.1151-2916.1993.tb03645.x,O+E
(La2O3)0.475(SrO)0.05(Cr2O3)0.5,1.689102414,523.7274647,20,0,,https://doi.org/10.1111/j.1151-2916.1993.tb03645.x,O+E
(La2O3)0.475(SrO)0.05(Cr2O3)0.5,1.294209739,456.6506163,20,0,,https://doi.org/10.1111/j.1151-2916.1993.tb03645.x,O+E
(La2O3)0.475(SrO)0.05(Cr2O3)0.5,1.020633478,329.1719858,20,0,,https://doi.org/10.1111/j.1151-2916.1993.tb03645.x,O+E
(BaO)0.95(La2O3)0.025(Fe2O3)0.5,4.774097689,306.9514191,2.00E+01,0,0.008,https://doi.org/10.1039/C2JM31711G,O+E
(BaO)0.95(La2O3)0.025(Fe2O3)0.5,5.98576865,339.6020237,2.00E+01,0,0.008,https://doi.org/10.1039/C2JM31711G,O+E
(BaO)0.95(La2O3)0.025(Fe2O3)0.5,7.35981493,364.4586131,2.00E+01,0,0.008,https://doi.org/10.1039/C2JM31711G,O+E
(BaO)0.95(La2O3)0.025(Fe2O3)0.5,8.733510128,394.5212436,2.00E+01,0,0.008,https://doi.org/10.1039/C2JM31711G,O+E
(BaO)0.95(La2O3)0.025(Fe2O3)0.5,9.94535663,424.5688277,2.00E+01,0,0.008,https://doi.org/10.1039/C2JM31711G,O+E
(BaO)0.95(La2O3)0.025(Fe2O3)0.5,10.63128264,453.2660009,2.00E+01,0,0.008,https://doi.org/10.1039/C2JM31711G,O+E
(BaO)0.95(La2O3)0.025(Fe2O3)0.5,11.11472224,484.5473866,2.00E+01,0,0.008,https://doi.org/10.1039/C2JM31711G,O+E
(BaO)0.95(La2O3)0.025(Fe2O3)0.5,10.50585868,513.1241889,2.00E+01,0,0.008,https://doi.org/10.1039/C2JM31711G,O+E
(BaO)0.95(La2O3)0.025(Fe2O3)0.5,9.613759898,541.67466,2.00E+01,0,0.008,https://doi.org/10.1039/C2JM31711G,O+E
(BaO)0.95(La2O3)0.025(Fe2O3)0.5,8.721485577,572.8281517,2.00E+01,0,0.008,https://doi.org/10.1039/C2JM31711G,O+E
(BaO)0.95(La2O3)0.025(Fe2O3)0.5,7.991235494,601.3936692,2.00E+01,0,0.008,https://doi.org/10.1039/C2JM31711G,O+E
(BaO)0.95(La2O3)0.025(Fe2O3)0.5,7.179709981,635.1577047,2.00E+01,0,0.008,https://doi.org/10.1039/C2JM31711G,O+E
(BaO)0.95(La2O3)0.025(Fe2O3)0.5,6.449547669,662.4217119,2.00E+01,0,0.008,https://doi.org/10.1039/C2JM31711G,O+E
(BaO)0.95(La2O3)0.025(Fe2O3)0.5,5.921520686,692.3075476,2.00E+01,0,0.008,https://doi.org/10.1039/C2JM31711G,O+E
(BaO)0.95(La2O3)0.025(Fe2O3)0.5,5.393405932,723.4948936,2.00E+01,0,0.008,https://doi.org/10.1039/C2JM31711G,O+E
(BaO)0.95(La2O3)0.025(Fe2O3)0.5,4.905928893,752.0829807,2.00E+01,0,0.008,https://doi.org/10.1039/C2JM31711G,O+E
(BaO)0.95(La2O3)0.025(Fe2O3)0.5,4.498586269,792.3921834,2.00E+01,0,0.008,https://doi.org/10.1039/C2JM31711G,O+E
(BaO)0.95(La2O3)0.025(Fe2O3)0.5,4.132407982,822.2930655,2.00E+01,0,0.008,https://doi.org/10.1039/C2JM31711G,O+E
(BaO)0.95(La2O3)0.025(Fe2O3)0.5,3.805901935,863.9113017,2.00E+01,0,0.008,https://doi.org/10.1039/C2JM31711G,O+E
(BaO)0.95(La2O3)0.025(Fe2O3)0.5,3.601309033,897.731761,2.00E+01,0,0.008,https://doi.org/10.1039/C2JM31711G,O+E
(SrO)0.8(TiO2)0.6(NbO2)0.4,2.490155197,930,2.15855E-18,0,,https://doi.org/10.1039/A702865B,E
(SrO)0.8(TiO2)0.6(NbO2)0.4,2.490155197,930,8.68077E-18,0,,https://doi.org/10.1039/A702865B,E
(SrO)0.8(TiO2)0.6(NbO2)0.4,2.384286779,930,3.95871E-17,0,,https://doi.org/10.1039/A702865B,E
(SrO)0.8(TiO2)0.6(NbO2)0.4,2.384286779,930,1.80673E-16,0,,https://doi.org/10.1039/A702865B,E
(SrO)0.8(TiO2)0.6(NbO2)0.4,2.384286779,930,7.2659E-16,0,,https://doi.org/10.1039/A702865B,E
(SrO)0.8(TiO2)0.6(NbO2)0.4,2.384286779,930,2.92203E-15,0,,https://doi.org/10.1039/A702865B,E
(SrO)0.8(TiO2)0.6(NbO2)0.4,2.384286779,930,1.03547E-14,0,,https://doi.org/10.1039/A702865B,E
(SrO)0.8(TiO2)0.6(NbO2)0.4,2.282919333,930,3.23069E-14,0,,https://doi.org/10.1039/A702865B,E
(SrO)0.8(TiO2)0.6(NbO2)0.4,2.384286779,930,1.14576E-13,0,,https://doi.org/10.1039/A702865B,E
(SrO)0.8(TiO2)0.6(NbO2)0.4,2.185861503,930,4.60041E-13,0,,https://doi.org/10.1039/A702865B,E
(SrO)0.8(TiO2)0.6(NbO2)0.4,2.384286779,930,4.49261E-12,0,,https://doi.org/10.1039/A702865B,E
(SrO)0.8(TiO2)0.6(NbO2)0.4,2.282919333,930,1.8053E-11,0,,https://doi.org/10.1039/A702865B,E
(SrO)0.8(TiO2)0.6(NbO2)0.4,2.384286779,930,4.97112E-11,0,,https://doi.org/10.1039/A702865B,E
(SrO)0.8(TiO2)0.6(NbO2)0.4,2.384286779,930,6.24246E-10,0,,https://doi.org/10.1039/A702865B,E
(SrO)0.8(TiO2)0.6(NbO2)0.4,2.185861503,930,4.60041E-08,0,,https://doi.org/10.1039/A702865B,E
(SrO)0.8(TiO2)0.6(NbO2)0.4,2.185861503,930,1.4006E-06,0,,https://doi.org/10.1039/A702865B,E
(SrO)0.8(TiO2)0.6(NbO2)0.4,2.185861503,930,0.000133148,0,,https://doi.org/10.1039/A702865B,E
(SrO)0.8(TiO2)0.6(NbO2)0.4,2.092930066,930,0.007624844,0,,https://doi.org/10.1039/A702865B,E
(SrO)0.8(TiO2)0.6(NbO2)0.4,2.00394959,930,0.095672365,0,,https://doi.org/10.1039/A702865B,E
(SrO)0.8(TiO2)0.6(NbO2)0.4,1.759069582,930,0.722554631,0,,https://doi.org/10.1039/A702865B,E
(SrO)0.8(TiO2)0.6(NbO2)0.4,1.759069582,930,6.20778437,0,,https://doi.org/10.1039/A702865B,E
(SrO)0.8(TiO2)0.6(NbO2)0.4,1.54411359,930,19.33772672,0,,https://doi.org/10.1039/A702865B,E
(SrO)0.8(TiO2)0.6(NbO2)0.4,2.510779016,930,1.77404E-18,0,,https://www.google.com/url?sa=t&rct=j&q=&esrc=s&source=web&cd=&cad=rja&uact=8&ved=2ahUKEwjPtYG3l6XqAhWRbs0KHX4FBqcQFjAAegQIBRAB&url=https%3A%2F%2Flink.springer.com%2Fcontent%2Fpdf%2F10.1007%252FBF02376024.pdf&usg=AOvVaw37VxFvqtPrs7FrpPLfph1-,E
(SrO)0.8(TiO2)0.6(NbO2)0.4,2.509672088,930,2.59979E-18,0,,https://www.google.com/url?sa=t&rct=j&q=&esrc=s&source=web&cd=&cad=rja&uact=8&ved=2ahUKEwjPtYG3l6XqAhWRbs0KHX4FBqcQFjAAegQIBRAB&url=https%3A%2F%2Flink.springer.com%2Fcontent%2Fpdf%2F10.1007%252FBF02376024.pdf&usg=AOvVaw37VxFvqtPrs7FrpPLfph1-,E
(SrO)0.8(TiO2)0.6(NbO2)0.4,2.505249255,930,1.19905E-17,0,,https://www.google.com/url?sa=t&rct=j&q=&esrc=s&source=web&cd=&cad=rja&uact=8&ved=2ahUKEwjPtYG3l6XqAhWRbs0KHX4FBqcQFjAAegQIBRAB&url=https%3A%2F%2Flink.springer.com%2Fcontent%2Fpdf%2F10.1007%252FBF02376024.pdf&usg=AOvVaw37VxFvqtPrs7FrpPLfph1-,E
(SrO)0.8(TiO2)0.6(NbO2)0.4,2.371940193,930,4.56826E-17,0,,https://www.google.com/url?sa=t&rct=j&q=&esrc=s&source=web&cd=&cad=rja&uact=8&ved=2ahUKEwjPtYG3l6XqAhWRbs0KHX4FBqcQFjAAegQIBRAB&url=https%3A%2F%2Flink.springer.com%2Fcontent%2Fpdf%2F10.1007%252FBF02376024.pdf&usg=AOvVaw37VxFvqtPrs7FrpPLfph1-,E
(SrO)0.8(TiO2)0.6(NbO2)0.4,2.368282197,930,1.74046E-16,0,,https://www.google.com/url?sa=t&rct=j&q=&esrc=s&source=web&cd=&cad=rja&uact=8&ved=2ahUKEwjPtYG3l6XqAhWRbs0KHX4FBqcQFjAAegQIBRAB&url=https%3A%2F%2Flink.springer.com%2Fcontent%2Fpdf%2F10.1007%252FBF02376024.pdf&usg=AOvVaw37VxFvqtPrs7FrpPLfph1-,E
(SrO)0.8(TiO2)0.6(NbO2)0.4,2.361503737,930,2.0869E-15,0,,https://www.google.com/url?sa=t&rct=j&q=&esrc=s&source=web&cd=&cad=rja&uact=8&ved=2ahUKEwjPtYG3l6XqAhWRbs0KHX4FBqcQFjAAegQIBRAB&url=https%3A%2F%2Flink.springer.com%2Fcontent%2Fpdf%2F10.1007%252FBF02376024.pdf&usg=AOvVaw37VxFvqtPrs7FrpPLfph1-,E
(SrO)0.8(TiO2)0.6(NbO2)0.4,2.355783272,930,1.70752E-14,0,,https://www.google.com/url?sa=t&rct=j&q=&esrc=s&source=web&cd=&cad=rja&uact=8&ved=2ahUKEwjPtYG3l6XqAhWRbs0KHX4FBqcQFjAAegQIBRAB&url=https%3A%2F%2Flink.springer.com%2Fcontent%2Fpdf%2F10.1007%252FBF02376024.pdf&usg=AOvVaw37VxFvqtPrs7FrpPLfph1-,E
(SrO)0.8(TiO2)0.6(NbO2)0.4,2.350594875,930,1.15409E-13,0,,https://www.google.com/url?sa=t&rct=j&q=&esrc=s&source=web&cd=&cad=rja&uact=8&ved=2ahUKEwjPtYG3l6XqAhWRbs0KHX4FBqcQFjAAegQIBRAB&url=https%3A%2F%2Flink.springer.com%2Fcontent%2Fpdf%2F10.1007%252FBF02376024.pdf&usg=AOvVaw37VxFvqtPrs7FrpPLfph1-,E
(SrO)0.8(TiO2)0.6(NbO2)0.4,2.346452386,930,5.32281E-13,0,,https://www.google.com/url?sa=t&rct=j&q=&esrc=s&source=web&cd=&cad=rja&uact=8&ved=2ahUKEwjPtYG3l6XqAhWRbs0KHX4FBqcQFjAAegQIBRAB&url=https%3A%2F%2Flink.springer.com%2Fcontent%2Fpdf%2F10.1007%252FBF02376024.pdf&usg=AOvVaw37VxFvqtPrs7FrpPLfph1-,E
(SrO)0.8(TiO2)0.6(NbO2)0.4,2.21963477,930,4.35516E-12,0,,https://www.google.com/url?sa=t&rct=j&q=&esrc=s&source=web&cd=&cad=rja&uact=8&ved=2ahUKEwjPtYG3l6XqAhWRbs0KHX4FBqcQFjAAegQIBRAB&url=https%3A%2F%2Flink.springer.com%2Fcontent%2Fpdf%2F10.1007%252FBF02376024.pdf&usg=AOvVaw37VxFvqtPrs7FrpPLfph1-,E
(SrO)0.8(TiO2)0.6(NbO2)0.4,2.215234597,930,2.4316E-11,0,,https://www.google.com/url?sa=t&rct=j&q=&esrc=s&source=web&cd=&cad=rja&uact=8&ved=2ahUKEwjPtYG3l6XqAhWRbs0KHX4FBqcQFjAAegQIBRAB&url=https%3A%2F%2Flink.springer.com%2Fcontent%2Fpdf%2F10.1007%252FBF02376024.pdf&usg=AOvVaw37VxFvqtPrs7FrpPLfph1-,E
(SrO)0.8(TiO2)0.6(NbO2)0.4,2.212305995,930,7.65275E-11,0,,https://www.google.com/url?sa=t&rct=j&q=&esrc=s&source=web&cd=&cad=rja&uact=8&ved=2ahUKEwjPtYG3l6XqAhWRbs0KHX4FBqcQFjAAegQIBRAB&url=https%3A%2F%2Flink.springer.com%2Fcontent%2Fpdf%2F10.1007%252FBF02376024.pdf&usg=AOvVaw37VxFvqtPrs7FrpPLfph1-,E
(SrO)0.8(TiO2)0.6(NbO2)0.4,2.205973967,930,9.17605E-10,0,,https://www.google.com/url?sa=t&rct=j&q=&esrc=s&source=web&cd=&cad=rja&uact=8&ved=2ahUKEwjPtYG3l6XqAhWRbs0KHX4FBqcQFjAAegQIBRAB&url=https%3A%2F%2Flink.springer.com%2Fcontent%2Fpdf%2F10.1007%252FBF02376024.pdf&usg=AOvVaw37VxFvqtPrs7FrpPLfph1-,E
(SrO)0.8(TiO2)0.6(NbO2)0.4,2.08215285,930,5.07451E-08,0,,https://www.google.com/url?sa=t&rct=j&q=&esrc=s&source=web&cd=&cad=rja&uact=8&ved=2ahUKEwjPtYG3l6XqAhWRbs0KHX4FBqcQFjAAegQIBRAB&url=https%3A%2F%2Flink.springer.com%2Fcontent%2Fpdf%2F10.1007%252FBF02376024.pdf&usg=AOvVaw37VxFvqtPrs7FrpPLfph1-,E
(SrO)0.8(TiO2)0.6(NbO2)0.4,2.073448559,930,1.91495E-06,0,,https://www.google.com/url?sa=t&rct=j&q=&esrc=s&source=web&cd=&cad=rja&uact=8&ved=2ahUKEwjPtYG3l6XqAhWRbs0KHX4FBqcQFjAAegQIBRAB&url=https%3A%2F%2Flink.springer.com%2Fcontent%2Fpdf%2F10.1007%252FBF02376024.pdf&usg=AOvVaw37VxFvqtPrs7FrpPLfph1-,E
(SrO)0.8(TiO2)0.6(NbO2)0.4,2.062960456,930,0.000155193,0,,https://www.google.com/url?sa=t&rct=j&q=&esrc=s&source=web&cd=&cad=rja&uact=8&ved=2ahUKEwjPtYG3l6XqAhWRbs0KHX4FBqcQFjAAegQIBRAB&url=https%3A%2F%2Flink.springer.com%2Fcontent%2Fpdf%2F10.1007%252FBF02376024.pdf&usg=AOvVaw37VxFvqtPrs7FrpPLfph1-,E
(SrO)0.8(TiO2)0.6(NbO2)0.4,2.054789395,930,0.004837793,0,,https://www.google.com/url?sa=t&rct=j&q=&esrc=s&source=web&cd=&cad=rja&uact=8&ved=2ahUKEwjPtYG3l6XqAhWRbs0KHX4FBqcQFjAAegQIBRAB&url=https%3A%2F%2Flink.springer.com%2Fcontent%2Fpdf%2F10.1007%252FBF02376024.pdf&usg=AOvVaw37VxFvqtPrs7FrpPLfph1-,E
(SrO)0.8(TiO2)0.6(NbO2)0.4,2.051620508,930,0.018431478,0,,https://www.google.com/url?sa=t&rct=j&q=&esrc=s&source=web&cd=&cad=rja&uact=8&ved=2ahUKEwjPtYG3l6XqAhWRbs0KHX4FBqcQFjAAegQIBRAB&url=https%3A%2F%2Flink.springer.com%2Fcontent%2Fpdf%2F10.1007%252FBF02376024.pdf&usg=AOvVaw37VxFvqtPrs7FrpPLfph1-,E
(SrO)0.8(TiO2)0.6(NbO2)0.4,1.942878218,930,0.058007677,0,,https://www.google.com/url?sa=t&rct=j&q=&esrc=s&source=web&cd=&cad=rja&uact=8&ved=2ahUKEwjPtYG3l6XqAhWRbs0KHX4FBqcQFjAAegQIBRAB&url=https%3A%2F%2Flink.springer.com%2Fcontent%2Fpdf%2F10.1007%252FBF02376024.pdf&usg=AOvVaw37VxFvqtPrs7FrpPLfph1-,E
(SrO)0.8(TiO2)0.6(NbO2)0.4,1.940309679,930,0.18256217,0,,https://www.google.com/url?sa=t&rct=j&q=&esrc=s&source=web&cd=&cad=rja&uact=8&ved=2ahUKEwjPtYG3l6XqAhWRbs0KHX4FBqcQFjAAegQIBRAB&url=https%3A%2F%2Flink.springer.com%2Fcontent%2Fpdf%2F10.1007%252FBF02376024.pdf&usg=AOvVaw37VxFvqtPrs7FrpPLfph1-,E